7
Frame 0, Iteration: 100
Si 0.000000 0.000000 -0.009495
H 0.798919 0.976248 0.777102
H -0.836247 0.803189 -0.951899
H -0.921581 -0.816187 0.906254
H 1.004755 -0.814765 -0.851041
Ar 19.999999 0.000000 -0.000003
Ar -0.000001 19.999997 0.000005
