2
Frame 0, Iteration: 100
H -0.153438 0.046539 0.070874
H 0.561608 -0.028992 -0.064084
