20
Frame 0, Iteration: 100
Si -0.045487 6.020303 -0.011544
H 0.735531 6.986314 0.766863
H -0.878551 6.804354 -0.941789
H -0.961555 5.213846 0.888233
H 0.940080 5.210683 -0.843588
Si -0.060836 -5.953663 -0.016476
H 0.782354 -5.166708 0.925619
H -0.943919 -5.220146 -0.951956
H -0.920148 -6.799521 0.850322
H 0.832563 -6.901472 -0.730201
C 5.997957 -0.005826 0.035648
H 6.619723 0.594515 0.694493
H 5.382470 0.620779 -0.606856
H 5.413686 -0.622969 0.720593
H 6.672358 -0.562110 -0.611072
H -5.424173 0.695046 0.644211
H -6.520451 0.685704 -0.651628
H -6.631532 -0.644680 0.605483
H -5.408393 -0.638852 -0.635907
C -5.991130 0.009454 0.015067
