2
Frame 0, Iteration: 100
H -0.088624 0.004885 0.089497
H 0.621471 -0.029152 -0.055548
