2
Frame 0, Iteration: 100
H -0.080789 -0.000154 0.091690
H 0.628511 -0.029102 -0.054501
