2
Frame 0, Iteration: 100
H -0.073563 -0.004799 0.093700
H 0.634964 -0.029045 -0.053530
