2
Frame 0, Iteration: 100
H -0.169424 0.056769 0.066167
H 0.546424 -0.028769 -0.066167
