43
Frame 0, Iteration: 100
C -2.383565 0.023867 -1.590255
C -2.446866 -0.026200 1.532158
C -2.382160 1.347946 -0.781829
C -2.435151 1.347976 0.807378
C -2.338771 -1.361444 0.743745
C -2.391980 -1.364362 -0.832038
O -1.181308 -2.099135 -1.193018
O -1.201174 -0.060097 2.378687
O -1.190863 2.088757 -1.184924
O -1.182910 -0.005378 -2.374766
O -1.163930 -2.088654 1.212320
O -1.207362 2.043364 1.233257
H -3.202029 -1.994389 -1.202625
H -3.183065 -0.047944 2.340608
H -3.150001 2.026290 -1.151555
H -3.223473 0.108093 -2.281651
H -3.170503 -1.968027 1.096878
H -3.264147 1.966266 1.163583
C -0.026094 0.009946 -1.545000
C 0.012058 -0.009974 1.545000
C -0.017475 1.342971 -0.763000
C -0.004937 1.331998 0.781000
C 0.042190 -1.342922 0.763000
C 0.005497 -1.331997 -0.781000
O 1.227987 -2.070173 -1.192609
O 1.183028 0.022776 2.392007
O 1.153734 2.068982 -1.182783
O 1.128698 0.033475 -2.414686
O 1.192618 -2.097298 1.149576
O 1.179764 2.129314 1.211619
C 2.389625 0.034933 -1.588679
C 2.415148 -0.012807 1.612789
C 2.412308 1.391130 -0.763318
C 2.414992 1.378490 0.799652
C 2.399726 -1.376877 0.817592
C 2.425446 -1.329671 -0.793266
H 3.246671 -1.986346 -1.086468
H 3.193599 -0.040841 2.378738
H 3.261849 1.984377 -1.116749
H 3.182303 0.096087 -2.336281
H 3.184314 -2.043566 1.181563
H 3.285869 1.975898 1.096059
Ne 11.986328 -0.028886 1.543347
