77
Frame 0, Iteration: 100
C 0.212000 0.048000 -0.037904
H 0.772554 0.788539 0.544062
H -0.401981 0.608045 -0.738929
H -0.439505 -0.529058 0.622839
H 0.939821 -0.539061 -0.602156
He -12.138002 -3.070002 6.989984
He -12.108003 -8.440012 6.990008
He -12.078004 -13.808019 6.989992
He -11.998001 13.708001 6.989998
He -11.968000 8.339990 6.990014
He -11.937998 2.968999 6.990010
He -12.100006 -3.020012 0.000005
He -12.069999 -8.390001 -0.000005
He -12.040000 -13.758001 0.000021
He -11.959994 13.758012 -0.000004
He -11.930013 8.390016 -0.000001
He -11.899986 3.019015 -0.000009
He -12.056998 -2.970008 -6.989005
He -12.028011 -8.340007 -6.989008
He -11.996994 -13.707999 -6.988993
He -11.917003 13.807999 -6.988996
He -11.886999 8.439988 -6.989024
He -11.856978 3.069004 -6.988999
He -6.990001 -3.179985 -9.998000
He -6.989980 -8.550004 -9.967992
He -6.989996 -13.917987 -9.938009
He -6.990010 13.597987 -9.858001
He -6.990023 8.230004 -9.828009
He -6.989996 2.858995 -9.797020
He 0.000004 -3.019977 -10.099003
He 0.000003 -8.389998 -10.069009
He 0.000013 -13.758006 -10.038986
He 0.000010 13.758008 -9.958995
He 0.000006 8.390001 -9.929005
He -0.000000 3.018991 -9.898984
He 6.990008 -2.859989 -10.198007
He 6.990008 -8.230014 -10.167989
He 6.989989 -13.598006 -10.136996
He 6.990013 13.917997 -10.057002
He 6.989988 8.550013 -10.028002
He 6.989996 3.178990 -9.996996
He -6.989975 -3.069991 9.857992
He -6.990003 -8.440010 9.886997
He -6.989995 -13.807995 9.917999
He -6.990015 13.708008 9.997990
He -6.990013 8.339997 10.027998
He -6.989997 2.969008 10.057999
He 0.000007 -3.019999 9.899017
He 0.000010 -8.390012 9.929014
He 0.000005 -13.758004 9.959007
He -0.000010 13.757984 10.039990
He -0.000018 8.390003 10.068997
He 0.000017 3.018990 10.100027
He 6.990010 -2.970003 9.937998
He 6.990023 -8.339981 9.966993
He 6.989996 -13.707990 9.997996
He 6.989991 13.808001 10.077991
He 6.990001 8.439992 10.107985
He 6.989989 3.069011 10.137985
He 12.069976 8.388985 0.000000
He 12.099997 3.018984 -0.000011
He 11.797982 -2.859999 -6.988994
He 11.828009 -8.229998 -6.988987
He 11.858002 -13.598009 -6.988989
He 11.937992 13.917987 -6.988981
He 11.967987 8.549005 -6.989012
He 11.998001 3.179012 -6.988999
He 11.997983 -3.179989 6.989990
He 12.028009 -8.549999 6.990000
He 12.057993 -13.917986 6.990004
He 12.138008 13.598008 6.990006
He 12.167980 8.228999 6.990003
He 12.198006 2.858985 6.990012
He 11.899998 -3.019999 0.000020
He 11.930011 -8.390011 -0.000001
He 11.960010 -13.757976 -0.000013
He 12.039980 13.758004 0.000023
