15
Frame 0, Iteration: 100
C -1.277372 -0.027417 0.020699
X -1.793836 0.010256 -0.611728
X -1.669359 -0.053890 0.680030
C -0.301742 1.181589 0.045360
X -0.376602 1.634842 -0.574913
X -0.389950 1.596742 0.672106
C 1.152690 0.599213 -0.027490
X 1.558853 0.790707 0.581080
X 1.504144 0.884834 -0.660696
C -0.426945 -1.355289 -0.019850
X -0.606614 -1.733049 -0.652324
X -0.576893 -1.812346 0.591345
C 1.082895 -0.938084 -0.081154
X 1.449044 -1.236222 0.556985
X 1.418880 -1.163178 -0.745007
