15
Frame 0, Iteration: 100
C -1.277372 -0.027409 0.020700
X -1.793836 0.010257 -0.611728
X -1.669358 -0.053888 0.680030
C -0.301734 1.181591 0.045360
X -0.376601 1.634842 -0.574913
X -0.389948 1.596742 0.672106
C 1.152694 0.599206 -0.027490
X 1.558853 0.790705 0.581080
X 1.504145 0.884833 -0.660696
C -0.426952 -1.355286 -0.019849
X -0.606615 -1.733049 -0.652324
X -0.576895 -1.812345 0.591345
C 1.082890 -0.938091 -0.081154
X 1.449043 -1.236223 0.556985
X 1.418879 -1.163179 -0.745007
