209
Frame 0, Iteration: 100
C -2.843301 -5.955509 1.342942
C -2.531636 -5.158033 -0.010211
C -2.869668 -5.981246 -1.293754
Si -4.792224 -5.948687 1.236036
Si -4.759981 -5.932157 -1.137356
O -3.022772 -3.805809 0.017537
C -5.126383 -4.095700 1.389361
C -4.457247 -3.565782 0.033477
C -5.150003 -4.071738 -1.308569
Si -6.858480 -3.277121 1.237721
Si -6.861842 -3.276629 -1.101446
O -4.374587 -2.106474 0.059991
C -6.399455 -1.430782 1.349126
C -5.554942 -1.246461 0.069956
C -6.382296 -1.415858 -1.293323
Si -7.609323 0.063144 1.191894
Si -7.569869 0.070228 -1.147709
O -4.826674 0.012275 0.030511
C -6.377234 1.486060 1.345239
C -5.514334 1.316225 0.049320
C -6.365005 1.509293 -1.308229
Si -6.799056 3.351469 1.165619
Si -6.784669 3.348543 -1.148921
O -4.344257 2.153757 0.016342
C -5.028853 4.143105 1.356032
C -4.399128 3.605020 0.014024
C -5.084176 4.096216 -1.334096
Si -4.694612 6.000663 1.151127
Si -4.687316 5.990828 -1.193586
O -2.977422 3.854668 -0.004438
C -2.764439 5.976134 1.299065
C -2.373454 5.156144 0.033387
C -2.765340 5.967039 -1.323978
Si -1.571408 7.463221 1.137481
Si -1.598460 7.439691 -1.167055
O -0.986148 4.771497 -0.015579
C 0.114408 6.544430 1.328161
C 0.066413 5.701620 -0.008744
C 0.093866 6.560153 -1.356992
Si 1.787863 7.447060 1.119249
Si 1.789277 7.417383 -1.209833
O 1.196584 4.755665 -0.031232
C 2.954371 5.911493 1.278763
C 2.573373 5.160430 -0.038465
C 2.931563 5.924016 -1.387053
Si 4.848178 5.910884 1.118522
Si 4.851264 5.912077 -1.207404
O 3.124362 3.800805 0.000153
C 5.246423 4.044630 1.304643
C 4.555387 3.521423 -0.028816
C 5.173929 4.010910 -1.399548
Si 6.930949 3.267352 1.120620
Si 6.944752 3.229749 -1.183480
O 4.453466 2.070839 -0.023729
C 6.522776 1.426086 1.272789
C 5.606757 1.223239 -0.031384
C 6.439031 1.405488 -1.385918
Si 7.674410 -0.077693 1.103136
Si 7.635434 -0.066460 -1.239943
O 4.868214 -0.064678 -0.028359
C 6.444506 -1.566993 1.281269
C 5.558465 -1.329736 -0.023588
C 6.452276 -1.541671 -1.338838
Si 6.890354 -3.392809 1.146280
Si 6.850222 -3.405866 -1.181322
O 4.368734 -2.168550 -0.035614
C 5.161677 -4.158919 1.307114
C 4.455318 -3.612840 -0.025452
C 5.131956 -4.154570 -1.334766
Si 4.760778 -6.013459 1.145911
Si 4.745406 -6.015260 -1.173300
O 3.017097 -3.872683 0.023151
C 2.891721 -6.033233 1.359975
C 2.478944 -5.201966 0.044253
C 2.852716 -6.015766 -1.308242
Si 1.684585 -7.441371 1.161582
Si 1.630816 -7.461958 -1.113182
O 1.072997 -4.757830 0.020849
C 0.000225 -6.565253 1.349891
C 0.000417 -5.748785 -0.006222
C -0.020227 -6.616088 -1.285569
Si -1.706328 -7.478867 1.218475
Si -1.714775 -7.455302 -1.122972
O -1.103924 -4.776538 0.079961
H -2.533667 -5.455576 2.257706
H -2.604433 -5.516756 -2.219197
H -5.546741 -6.896507 2.033451
H -5.558751 -6.892547 -1.937730
H -4.623274 -3.675288 2.260867
H -4.653086 -3.764782 -2.239045
H -7.968259 -3.797791 2.031920
H -7.970356 -3.804378 -1.936382
H -5.773288 -1.347961 2.233559
H -5.797063 -1.295974 -2.203638
H -8.820709 0.068304 2.020345
H -8.821320 0.047167 -1.942114
H -5.860215 1.370547 2.300668
H -5.722387 1.488120 -2.195514
H -7.909894 3.912120 2.000778
H -7.915566 3.884791 -1.965109
H -4.541229 3.759074 2.255930
H -4.635081 3.623846 -2.199994
H -5.440385 6.975531 1.975907
H -5.453458 6.947734 -1.989917
H -2.634632 5.437116 2.207437
H -2.475551 5.455373 -2.235392
H -1.841875 8.670666 1.954519
H -1.862690 8.645358 -2.010102
H 0.090403 5.922667 2.226876
H 0.098511 5.942861 -2.279727
H 2.080442 8.637730 1.936251
H 2.057141 8.610971 -2.028946
H 2.675294 5.411439 2.186300
H 2.700251 5.443526 -2.344063
H 5.647317 6.874823 1.920862
H 5.620183 6.855701 -2.040948
H 4.748083 3.703901 2.206388
H 4.691762 3.661086 -2.309758
H 8.065507 3.779803 1.920234
H 8.029381 3.758960 -2.046773
H 5.921391 1.279066 2.156284
H 5.860357 1.268309 -2.293124
H 8.910388 -0.085530 1.923600
H 8.874454 -0.097816 -2.041364
H 5.870312 -1.384398 2.177285
H 5.821568 -1.402864 -2.205929
H 8.005259 -3.928364 1.939484
H 7.957886 -3.930278 -2.031138
H 4.675877 -3.868749 2.234555
H 4.543724 -3.772771 -2.168030
H 5.532347 -6.988690 1.958335
H 5.492803 -6.983954 -2.005605
H 2.591052 -5.567713 2.292763
H 2.624740 -5.545684 -2.257181
H 1.941344 -8.683807 1.989868
H 1.905865 -8.674139 -1.978220
H 0.014370 -5.941343 2.238624
H -0.066671 -6.032354 -2.200527
H -1.982592 -8.653784 2.013575
H -2.000381 -8.641469 -1.953627
C -2.052059 -1.235024 -2.361090
C -0.017512 2.334505 -2.444045
C 2.086666 1.221476 -2.460201
C 2.092386 -1.204310 -2.448521
C 0.036540 -2.377901 -2.401427
C -1.294856 -0.781528 -3.617541
C -1.307678 0.717674 -3.664536
C -0.016458 1.487146 -3.717488
C 1.323383 0.719412 -3.712936
C 1.311947 -0.775879 -3.642553
C 0.013776 -1.545593 -3.716124
S -3.429223 -0.062970 -2.597859
S -1.729340 2.982864 -2.624412
S 1.701660 3.020841 -2.635323
S 3.448400 0.014670 -2.665903
S 1.736025 -2.991227 -2.580631
S -1.690235 -3.044679 -2.619702
C -1.993885 1.175576 2.489887
C 0.018702 2.363079 2.412672
C -2.001953 -1.189924 2.510330
C 0.064709 -2.362482 2.504928
C 2.124138 -1.162874 2.466707
C 2.143250 1.223320 2.456604
C 0.062533 1.562809 3.731624
C -1.255913 0.770873 3.771552
C -1.276866 -0.729792 3.727111
C 0.064231 -1.517396 3.772238
C 1.374740 -0.699705 3.766565
C 1.337074 0.762845 3.697901
S -1.691725 2.984337 2.651595
S -3.425299 -0.027989 2.704551
S -1.624627 -2.980053 2.702656
S 1.802236 -2.950165 2.665878
S 3.503573 -0.009541 2.643003
S 1.746436 3.002408 2.619399
C 1.409018 0.740590 1.202768
C 0.079334 1.545285 1.135544
C -1.257925 0.784773 1.175944
C -1.279281 -0.740080 1.249128
C 0.000696 -1.491292 1.234375
C 1.364334 -0.748469 1.190611
O 0.060944 2.358997 -0.039290
O 2.089999 1.173859 -0.034071
O 2.076744 -1.171252 0.025112
O -1.986627 1.196427 -0.029051
O -1.999777 -1.195750 0.078388
O 0.046551 -2.353906 0.088937
C -0.000402 -1.536698 -1.131023
C -1.256177 -0.728671 -1.129447
C -1.294584 0.769411 -1.154624
C 0.020311 1.570723 -1.180977
C 1.354559 0.781989 -1.182905
C 1.363018 -0.804913 -1.178982
H -1.946222 -1.114823 -4.431440
H -1.860120 1.036943 -4.553245
H -0.031867 2.124171 -4.616605
H 1.850133 1.071557 -4.610698
H 1.847926 -1.038312 -4.555716
H -0.001206 -2.097907 -4.666220
H 0.160385 2.188218 4.629206
H -1.918214 1.156970 4.555476
H -1.854598 -1.004009 4.616782
H 0.026161 -2.086909 4.710668
H 1.918340 -0.987811 4.674689
H 1.970503 1.079967 4.534755
C -2.053575 1.146805 -2.443751
Ne 25.048996 1.530005 3.720990
Ne 0.048999 26.530001 3.720995
Ne 0.049006 -23.468997 3.720998
