65
Frame 0, Iteration: 100
H -12.774550 -1.239988 -0.086044
C -11.685206 -1.343396 -0.024058
N -11.030185 -0.018334 -0.466801
N -11.209863 -1.643758 1.471499
N -11.150493 -2.478025 -0.896449
C -10.178950 -0.354953 -1.707705
C -10.183413 0.514531 0.691245
C -10.238255 -0.525406 1.827169
C -10.363775 -2.909883 1.446857
C -10.378242 -3.455684 0.027126
C -10.240688 -1.876606 -1.904904
C -8.771079 -0.517117 -1.113566
H -10.258142 0.283577 -2.590318
C -8.766843 0.050052 0.368808
H -10.245117 1.586218 0.898247
C -8.849399 -0.950088 1.493849
H -10.281766 -0.045248 2.797758
C -8.896518 -2.470343 1.266966
H -10.612415 -3.654518 2.199180
C -8.905734 -2.992624 -0.153343
H -10.620819 -4.515461 -0.071233
C -8.832312 -2.048124 -1.390133
H -10.300277 -2.233413 -2.924862
O -7.592387 0.016877 -1.829685
O -7.595637 0.936547 0.577334
O -7.764330 -0.695349 2.421859
O -7.861387 -3.103628 2.057182
O -7.920542 -3.991796 -0.312852
O -7.697538 -2.446118 -2.239047
C -6.457135 -0.559216 -1.091061
C -6.509141 -0.024587 0.402384
C -6.553227 -1.051104 1.661828
C -6.610968 -2.603485 1.384857
C -6.629546 -3.204101 -0.133393
C -6.522048 -2.200154 -1.333352
O -5.212080 -0.051047 -1.687341
O -5.304066 0.717193 0.619439
O -5.423159 -0.789741 2.481902
O -5.481827 -3.230342 2.038208
O -5.511609 -4.107613 -0.255195
O -5.338726 -2.574974 -2.109251
C -4.070669 -0.706756 -1.008082
C -4.162182 -0.183394 0.473137
C -4.220658 -1.149835 1.701639
C -4.333453 -2.692342 1.383958
C -4.305300 -3.301127 -0.058786
C -4.189045 -2.270961 -1.252910
O -2.852596 -0.246885 -1.619962
O -2.952171 0.626525 0.629560
O -3.056061 -0.948818 2.603994
O -3.199730 -3.280049 2.117173
O -3.160875 -4.193670 -0.086101
O -2.986719 -2.645289 -1.969667
C -1.737487 -0.829438 -0.911714
C -1.761050 -0.246855 0.584862
C -1.876935 -1.242542 1.816701
C -1.932189 -2.800885 1.502273
C -1.921692 -3.364060 0.040039
C -1.856538 -2.361422 -1.167377
H -0.873195 -0.489467 -1.492394
H -0.855059 0.357008 0.648639
H -1.109297 -1.003596 2.548942
H -1.131272 -3.239031 2.104914
H -1.120175 -4.107997 0.026645
H -0.983105 -2.752225 -1.675784
