102
Frame 0, Iteration: 100
C -0.855000 -0.009000 -0.032969
H -0.659758 0.868239 0.591410
H -1.722464 -0.557942 0.328461
H -1.074812 0.335257 -1.042090
O 0.197000 -1.020000 -0.013639
C 1.704000 -0.029000 -0.067879
H 1.774077 0.650060 0.782642
H 1.709745 0.342716 -1.090494
O 2.757000 -1.040000 0.008909
C 4.264000 -0.049000 0.012550
H 4.359262 0.659907 0.836928
H 4.251823 0.369025 -0.988697
O 5.317000 -1.060000 0.002795
C 6.824000 -0.069000 0.017779
H 6.936360 0.703197 0.781823
H 6.778636 0.439932 -0.940728
O 7.877000 -1.080000 -0.014088
C 9.384000 -0.089000 -0.041152
H 9.423783 0.637922 0.771670
H 9.438758 0.379193 -1.020994
O 10.437000 -1.100000 0.020392
C 11.944000 -0.109000 -0.080734
H 12.117419 0.586691 0.739520
H 11.961093 0.412231 -1.038505
O 12.997000 -1.120000 0.023608
C 14.504000 -0.129000 -0.058430
H 14.555886 0.549655 0.793577
H 14.403188 0.341535 -1.035667
O 15.557000 -1.140000 -0.039741
C 17.064000 -0.149000 -0.031294
H 17.158249 0.609891 0.745926
H 17.154406 0.290616 -1.023216
O 18.117000 -1.160000 0.022208
C 19.624000 -0.169000 -0.034748
H 19.703722 0.464507 0.847906
H 19.693086 0.340616 -0.996325
O 20.677000 -1.180000 0.036923
C 22.184000 -0.189000 -0.020702
H 22.332438 0.518865 0.793011
H 22.147622 0.315538 -0.983893
O 23.237000 -1.200000 0.015100
C 24.744000 -0.209000 -0.050975
H 24.827238 0.480981 0.788385
H 24.789271 0.273035 -1.024731
O 25.797000 -1.220000 -0.013191
C 27.304000 -0.229000 -0.020523
H 27.388964 0.522239 0.764648
H 27.361178 0.246267 -0.999797
O 28.357000 -1.240000 0.046708
C 29.864000 -0.249000 -0.017865
H 29.913656 0.476082 0.800066
H 29.803754 0.200339 -1.007204
O 30.917000 -1.260000 0.076636
C 32.424000 -0.269000 -0.033126
H 32.613840 0.521331 0.700617
H 32.401393 0.189753 -1.018984
O 33.477000 -1.280000 -0.010909
C 34.984000 -0.289000 -0.070313
H 35.022409 0.530761 0.650612
H 34.871843 0.062118 -1.091680
O 36.037000 -1.300000 -0.013148
C 37.544000 -0.309000 0.001345
H 37.655013 0.391664 0.830646
H 37.583854 0.123175 -0.996494
O 38.597000 -1.320000 0.056398
C 40.104000 -0.329000 -0.059437
H 40.191461 0.424274 0.725875
H 40.035190 0.138458 -1.042259
O 41.157000 -1.340000 0.011554
C 42.664000 -0.349000 -0.010153
H 42.773323 0.391115 0.784641
H 42.586515 0.094410 -0.999229
O 43.717000 -1.360000 0.037874
C 45.224000 -0.369000 0.011173
H 45.365695 0.309728 0.852477
H 45.303247 0.163930 -0.940770
O 46.277000 -1.380000 0.066587
C 47.784000 -0.389000 -0.055850
H 47.862809 0.437363 0.659948
H 47.802669 -0.111739 -1.106633
O 48.837000 -1.400000 0.036624
C 50.344000 -0.409000 0.037274
H 50.444906 0.318304 0.842951
H 50.262201 0.050466 -0.944147
O 51.397000 -1.420000 0.017975
C 52.904000 -0.429000 -0.021245
H 52.984363 0.235817 0.837645
H 52.926351 0.053440 -0.997362
O 53.957000 -1.440000 -0.005861
C 55.464000 -0.449000 -0.057964
H 55.567334 0.198133 0.819500
H 55.462440 0.038242 -1.030111
O 56.517000 -1.460000 -0.023983
C 58.024000 -0.469000 -0.030692
H 58.111782 0.269441 0.770936
H 58.091259 0.006933 -1.004804
O 59.077000 -1.480000 0.005941
C 60.584000 -0.489000 -0.018022
H 60.705927 0.218590 0.807218
H 60.637009 -0.120439 -1.038108
O 61.637000 -1.500000 0.032249
H 62.511560 -1.091281 0.116766
