350
Frame 0, Iteration: 100
C 0.261717 2.426068 0.213006
O 0.124908 3.187594 -1.055525
O 1.510886 1.637155 0.244892
C 2.682356 2.483737 0.258027
O 2.784832 3.271649 -1.013963
O 3.847287 1.571498 0.229045
C 5.152888 2.215756 0.258743
O 5.279547 2.982991 -1.000549
O 6.178551 1.194467 0.258566
C 7.555739 1.663107 0.269030
O 7.789892 2.451897 -0.963900
O 8.431675 0.503675 0.275956
C 9.867810 0.841641 0.230685
O 10.186690 1.578405 -0.957055
O 10.613628 -0.384972 0.255664
C 12.048324 -0.253667 0.233471
O 12.495617 0.442162 -1.002937
O 12.624129 -1.630249 0.250207
C 14.070824 -1.674772 0.234748
O 14.595628 -1.035586 -0.975443
O 14.479776 -3.074886 0.275337
C 15.929211 -3.311339 0.207519
O 16.540191 -2.733971 -0.987952
O 16.150733 -4.717720 0.268224
C 17.575276 -5.160570 0.269417
O 18.193420 -4.635230 -0.992828
O 17.550802 -6.637026 0.261238
C 18.875189 -7.175793 0.233162
O 19.616807 -6.794950 -1.018029
O 18.780176 -8.597867 0.264836
C 20.045472 -9.368338 0.247908
O 20.793342 -9.091220 -0.950532
O 19.724613 -10.793623 0.287521
C 20.871402 -11.702833 0.259854
O 21.626507 -11.509975 -0.945364
O 20.365494 -13.057393 0.260531
C 21.383824 -14.139931 0.266857
O 22.150288 -14.003735 -0.964464
O 20.720888 -15.410142 0.264086
C 21.592570 -16.530667 0.264602
O 22.391750 -16.559888 -0.959645
O 20.818792 -17.743212 0.259154
C 21.513550 -19.025501 0.242367
O 22.317156 -19.089078 -0.971253
O 20.500327 -20.093744 0.254384
C 21.091686 -21.446445 0.264582
O 21.901240 -21.604408 -0.971418
O 20.024300 -22.409088 0.313806
C 20.436490 -23.831692 0.293009
O 21.185502 -24.090151 -0.953018
O 19.181147 -24.646782 0.246322
C 19.408362 -26.045959 0.253079
O 20.184637 -26.446389 -0.918154
O 18.146779 -26.717517 0.271082
C 18.205774 -28.143563 0.256323
O 18.832677 -28.605321 -0.978104
O 16.785203 -28.652817 0.250187
C 16.650976 -30.128566 0.232803
O 17.238386 -30.623062 -1.008385
O 15.185412 -30.455481 0.269203
C 14.904072 -31.871125 0.245523
O 15.408088 -32.452572 -0.963997
O 13.478766 -31.977112 0.301311
C 12.963014 -33.355822 0.268998
O 13.399051 -34.043264 -0.941116
O 11.484847 -33.280166 0.243160
C 10.845351 -34.574737 0.243214
O 11.166447 -35.283326 -1.008280
O 9.421799 -34.350512 0.272846
C 8.574872 -35.545898 0.264146
O 8.870471 -36.293909 -0.968803
O 7.143830 -35.151960 0.275897
C 6.226703 -36.266604 0.280160
O 6.392556 -37.025738 -0.938398
O 4.915817 -35.676936 0.263648
C 3.795487 -36.571803 0.221582
O 3.816854 -37.402401 -0.948309
O 2.533892 -35.821398 0.243342
C 1.335086 -36.673540 0.224637
O 1.307917 -37.529292 -1.029808
O 0.183878 -35.820517 0.282959
C -1.112449 -36.493840 0.290073
O -1.241582 -37.248263 -0.984110
O -2.171669 -35.429653 0.309117
C -3.496694 -35.928395 0.255483
O -3.730696 -36.696309 -1.000129
O -4.405666 -34.768909 0.283496
C -5.827611 -35.071821 0.258865
O -6.147302 -35.813661 -1.009347
O -6.561037 -33.815758 0.240586
C -8.013645 -33.982190 0.223194
O -8.439043 -34.617057 -1.017136
O -8.572881 -32.612387 0.226891
C -10.022707 -32.520848 0.229457
O -10.525495 -33.133276 -0.992864
O -10.429060 -31.126093 0.258868
C -11.895823 -30.903881 0.224029
O -12.454996 -31.407237 -0.988166
O -12.095699 -29.496437 0.252629
C -13.499066 -29.096543 0.225401
O -14.107840 -29.554540 -0.989159
O -13.576631 -27.629350 0.282323
C -14.927508 -27.025172 0.209657
O -15.593913 -27.392286 -1.016732
O -14.775014 -25.571306 0.225155
C -15.979365 -24.816164 0.197648
O -16.730561 -25.088377 -1.016784
O -15.673374 -23.384406 0.256369
C -16.820906 -22.509931 0.243589
O -17.578053 -22.746811 -1.043665
O -16.299534 -21.123139 0.234014
C -17.369990 -20.085560 0.261629
O -18.137565 -20.208034 -1.024632
O -16.701189 -18.798199 0.203025
C -17.599282 -17.621936 0.223107
O -18.408901 -17.639026 -1.005080
O -16.719810 -16.413563 0.241945
C -17.454215 -15.187103 0.235843
O -18.238825 -15.098097 -1.018446
O -16.487372 -14.105787 0.271420
C -17.117855 -12.757080 0.211254
O -17.889496 -12.580109 -1.059018
O -16.019001 -11.775894 0.264648
C -16.388068 -10.376540 0.254138
O -17.121885 -10.132270 -1.043189
O -15.212732 -9.567436 0.240822
C -15.414475 -8.125243 0.197795
O -16.135633 -7.770776 -1.000131
O -14.097793 -7.536559 0.230356
C -14.173976 -6.040732 0.241155
O -14.811150 -5.591508 -1.033114
O -12.763307 -5.528744 0.250845
C -12.624154 -4.087470 0.232241
O -13.203347 -3.610198 -1.030613
O -11.175191 -3.776839 0.238408
C -10.856400 -2.369790 0.185751
O -11.401297 -1.759684 -1.016002
O -9.458353 -2.225001 0.269720
C -8.957260 -0.850134 0.236595
O -9.395917 -0.231782 -1.069755
O -7.502509 -0.927793 0.284398
C -6.845383 0.354044 0.235608
O -7.167697 1.117632 -1.014741
O -5.384910 0.159715 0.235714
C -4.549312 1.388233 0.257230
O -4.805646 2.120251 -0.960324
O -3.164809 0.939432 0.282864
C -2.201764 2.044068 0.217255
O -2.350205 2.771837 -1.015116
O -0.861249 1.452187 0.316374
H 11.152102 -35.209166 1.073807
H 8.820132 -36.216012 1.092844
H 14.459090 -1.124070 1.089572
H 6.303765 -36.826853 1.214692
H 3.778600 -37.233899 1.079679
H 2.643333 3.111544 1.157468
H 1.328837 -37.410700 1.024276
H -1.125625 -37.163737 1.157408
H 22.048638 -14.135379 1.141501
H -3.629457 -36.524599 1.158425
H -6.087682 -35.615704 1.169247
H 16.384022 -2.847874 1.077546
H -8.292642 -34.507351 1.139516
H -10.411159 -32.992345 1.129449
H 5.270236 2.818078 1.163171
H -12.448400 -31.347850 1.052699
H -13.987308 -29.550304 1.090483
H 22.214520 -16.418826 1.157892
H -15.565756 -27.431327 0.996381
H -16.563217 -25.112224 1.064253
H 18.036077 -4.823166 1.203475
H -17.354952 -22.651811 1.188039
H -17.995679 -20.123103 1.161611
H 7.738483 2.214821 1.193172
H -18.277738 -17.689714 1.076690
H -18.020306 -15.237998 1.166698
H 22.263517 -19.021810 1.032714
H -17.755059 -12.559886 1.075886
H -16.972411 -10.129890 1.144791
H 19.317920 -6.809407 1.156750
H -15.974070 -7.796227 1.069502
H -14.717461 -5.645242 1.123505
H 10.181676 1.462421 1.069569
H -13.134627 -3.647932 1.092083
H -11.271413 -1.774019 0.993532
H 21.687145 -21.593144 1.169954
H -9.285313 -0.321564 1.141694
H -7.221179 0.916966 1.090630
H 20.701680 -9.024959 1.054498
H -4.805496 1.999115 1.126087
H 20.001444 -26.158407 1.155154
H -2.295844 2.746648 1.045224
H 12.462227 0.209546 1.130881
H 18.630733 -28.516473 1.190968
H 21.052305 -24.039286 1.174736
H 17.122864 -30.584529 1.107235
H 0.212917 3.141982 1.035056
H 15.320073 -32.300010 1.154129
H 13.340613 -33.893702 1.147730
H 21.540184 -11.543214 1.109351
C 10.809050 -34.573923 -2.259697
O 9.377096 -34.344428 -2.235676
C 8.570685 -35.549790 -2.222632
O 7.172823 -35.145055 -2.247106
C 6.251547 -36.257670 -2.212698
O 4.895610 -35.691001 -2.285052
C 3.778524 -36.619648 -2.263641
O 2.534988 -35.868755 -2.283404
C 1.356178 -36.687479 -2.244834
O 0.196535 -35.800538 -2.219457
C -1.120964 -36.455017 -2.220536
O -2.148846 -35.419998 -2.293245
C -3.510367 -35.868028 -2.229101
O -4.398661 -34.751670 -2.264362
C -5.815247 -35.079658 -2.252622
O -6.560548 -33.812370 -2.246456
C -8.033335 -33.941439 -2.248909
O -8.582784 -32.578800 -2.270077
C -10.040515 -32.513356 -2.255461
O -10.461210 -31.145343 -2.296357
C -11.920175 -30.939222 -2.239229
O -12.068180 -29.501168 -2.267571
C -13.493575 -29.068032 -2.252835
O -13.565039 -27.602846 -2.237133
C -14.899028 -27.005941 -2.248502
O -14.723814 -25.545609 -2.240048
C -15.963452 -24.794564 -2.247362
O -15.673121 -23.384968 -2.301838
C -16.819488 -22.511292 -2.257974
O -16.309852 -21.146556 -2.291895
C -17.340673 -20.084776 -2.256684
O -16.685956 -18.811706 -2.253496
C -17.572445 -17.651851 -2.297568
O -16.675601 -16.439152 -2.264183
C -17.433195 -15.170013 -2.276678
O -16.505794 -14.093832 -2.288139
C -17.115625 -12.791028 -2.298461
O -16.000536 -11.823043 -2.272320
C -16.381091 -10.447632 -2.290756
O -15.169775 -9.607562 -2.229519
C -15.418582 -8.137984 -2.243857
O -14.115756 -7.479401 -2.270667
C -14.117456 -6.021769 -2.274419
O -12.755549 -5.521547 -2.257519
C -12.603175 -4.086094 -2.259337
O -11.213341 -3.774590 -2.267904
C -10.910737 -2.360390 -2.262378
O -9.432619 -2.216047 -2.235384
C -8.901925 -0.848974 -2.283736
O -7.439490 -0.910802 -2.244868
C -6.812306 0.384734 -2.224130
O -5.369235 0.188163 -2.292148
C -4.557489 1.375946 -2.222132
O -3.154804 0.961919 -2.270179
C -2.186064 2.044560 -2.237716
O -0.888992 1.450091 -2.258056
C 0.211280 2.392996 -2.237081
O 1.494084 1.663235 -2.277185
C 2.715044 2.506229 -2.263874
O 3.851689 1.593219 -2.250455
C 5.175319 2.263313 -2.227061
O 6.190183 1.214146 -2.267604
C 7.581910 1.692662 -2.213794
O 8.452558 0.522524 -2.222267
C 9.855784 0.882597 -2.266494
O 10.595579 -0.397570 -2.292642
C 12.074060 -0.271042 -2.210300
O 12.628373 -1.619272 -2.229200
C 14.116853 -1.676157 -2.240339
O 14.472979 -3.083877 -2.250595
C 15.938662 -3.289325 -2.251424
O 16.161690 -4.718559 -2.265343
C 17.600391 -5.156182 -2.227529
O 17.631608 -6.619882 -2.240143
C 18.910247 -7.179226 -2.229087
O 18.772215 -8.617794 -2.202116
C 20.048030 -9.406548 -2.203890
O 19.722573 -10.802487 -2.254526
C 20.907148 -11.749953 -2.232916
O 20.374742 -13.093671 -2.234803
C 21.406888 -14.117719 -2.226848
O 20.733835 -15.434927 -2.246874
C 21.612084 -16.552554 -2.203959
O 20.785425 -17.776366 -2.270190
C 21.538238 -19.030020 -2.197921
O 20.548465 -20.091621 -2.264096
C 21.158323 -21.434944 -2.242861
O 20.036268 -22.410749 -2.229191
C 20.443477 -23.807413 -2.208409
O 19.232540 -24.591966 -2.265321
C 19.455004 -26.060307 -2.232113
O 18.108985 -26.732726 -2.193847
C 18.199463 -28.150348 -2.200301
O 16.810864 -28.608674 -2.290572
C 16.647806 -30.114858 -2.226679
O 15.224204 -30.419479 -2.209811
C 14.938589 -31.854029 -2.204062
O 13.463755 -31.980242 -2.240303
C 12.971797 -33.377514 -2.232314
O 11.548773 -33.305155 -2.218906
H -8.367698 -34.514870 -3.115856
H -10.438256 -33.132243 -3.064179
H -12.389090 -31.403133 -3.109746
H -13.985961 -29.478903 -3.137207
H -15.426703 -27.373187 -3.130707
H 14.444051 -1.245916 -3.191247
H -16.493229 -25.044463 -3.167819
H -17.484123 -22.692700 -3.101431
H -17.978475 -20.184341 -3.134016
H 0.101360 3.133191 -3.026701
H -18.105530 -17.758360 -3.252752
H 2.774084 3.249323 -3.064745
H -18.011013 -15.119891 -3.204034
H -17.783156 -12.620494 -3.147487
H 7.779582 2.277233 -3.112352
H -17.056568 -10.267238 -3.133457
H 10.044025 1.494069 -3.156604
H -16.054341 -7.783759 -3.060583
H 12.455951 0.328299 -3.037802
H 22.224792 -19.039924 -3.042054
H -14.621248 -5.725391 -3.194909
H 16.447796 -2.813319 -3.092584
H -13.095839 -3.719799 -3.160010
H 18.137550 -4.695128 -3.058073
H -11.243939 -1.885625 -3.187208
H 19.459132 -6.890042 -3.132656
H -9.290478 -0.317657 -3.155196
H 20.683028 -9.271277 -3.080190
H -7.175472 0.994484 -3.047615
H 21.548685 -11.605120 -3.109874
H -4.783266 2.042606 -3.058044
H 21.994731 -13.927662 -3.134922
H -2.392646 2.693312 -3.091399
H 22.262204 -16.558251 -3.077441
H 5.292594 2.969942 -3.049889
H 21.893130 -21.594889 -3.038913
H 21.058911 -23.986600 -3.090669
H 20.033337 -26.307795 -3.128617
H 18.787959 -28.466173 -3.063253
H 17.121115 -30.524939 -3.120591
H 15.311571 -32.398593 -3.074031
H 13.355448 -33.829662 -3.150845
H 11.040918 -35.065934 -3.207199
H 8.774123 -36.156950 -3.108461
H 6.398440 -36.938644 -3.055381
H 3.892764 -37.273795 -3.130168
H 1.332333 -37.269537 -3.163483
H -1.232093 -37.060817 -3.119948
H -3.616946 -36.453720 -3.136716
H -6.077992 -35.634714 -3.159363
