15
Frame 0, Iteration: 100
C -1.263100 -0.019640 0.019773
H -1.984879 0.021582 -0.819904
H -1.816027 -0.093298 0.953187
C -0.309771 1.184016 0.064261
H -0.353814 1.817847 -0.821604
H -0.435621 1.819092 0.947951
C 1.145544 0.590642 -0.030196
H 1.771963 0.818490 0.834339
H 1.653704 1.000699 -0.906598
C -0.423274 -1.354044 -0.012189
H -0.683502 -1.930560 -0.897056
H -0.626276 -2.026444 0.829502
C 1.081113 -0.935580 -0.113185
H 1.595465 -1.346789 0.763768
H 1.583528 -1.228969 -1.039676
