15
Frame 0, Iteration: 100
C -1.263100 -0.019654 0.019772
H -1.984880 0.021580 -0.819904
H -1.816028 -0.093300 0.953187
C -0.309785 1.184012 0.064262
H -0.353816 1.817846 -0.821604
H -0.435623 1.819091 0.947951
C 1.145537 0.590654 -0.030195
H 1.771962 0.818492 0.834339
H 1.653702 1.000701 -0.906598
C -0.423261 -1.354049 -0.012190
H -0.683500 -1.930561 -0.897056
H -0.626274 -2.026445 0.829502
C 1.081122 -0.935569 -0.113185
H 1.595467 -1.346787 0.763768
H 1.583529 -1.228967 -1.039676
