15
Frame 0, Iteration: 100
C -1.277361 -0.027407 0.020714
X -1.793835 0.010257 -0.611727
X -1.669358 -0.053889 0.680032
C -0.301732 1.181586 0.045365
X -0.376600 1.634841 -0.574912
X -0.389947 1.596741 0.672105
C 1.152696 0.599208 -0.027490
X 1.558853 0.790706 0.581080
X 1.504145 0.884834 -0.660696
C -0.426952 -1.355282 -0.019858
X -0.606616 -1.733048 -0.652327
X -0.576894 -1.812343 0.591343
C 1.082890 -0.938090 -0.081157
X 1.449043 -1.236223 0.556985
X 1.418879 -1.163179 -0.745007
