15
Frame 0, Iteration: 100
C -1.277361 -0.027412 0.020713
X -1.793835 0.010256 -0.611727
X -1.669358 -0.053890 0.680032
C -0.301736 1.181585 0.045365
X -0.376601 1.634841 -0.574913
X -0.389948 1.596741 0.672105
C 1.152693 0.599211 -0.027489
X 1.558853 0.790706 0.581080
X 1.504145 0.884834 -0.660696
C -0.426948 -1.355284 -0.019858
X -0.606615 -1.733048 -0.652327
X -0.576893 -1.812344 0.591343
C 1.082893 -0.938087 -0.081157
X 1.449043 -1.236222 0.556985
X 1.418880 -1.163179 -0.745007
