15
Frame 0, Iteration: 100
C -1.263101 -0.019666 0.019772
H -1.984880 0.021575 -0.819904
H -1.816028 -0.093304 0.953187
C -0.309797 1.184010 0.064262
H -0.353820 1.817844 -0.821603
H -0.435628 1.819090 0.947951
C 1.145531 0.590664 -0.030194
H 1.771959 0.818495 0.834339
H 1.653700 1.000705 -0.906598
C -0.423250 -1.354053 -0.012191
H -0.683495 -1.930563 -0.897056
H -0.626270 -2.026447 0.829502
C 1.081129 -0.935559 -0.113184
H 1.595469 -1.346784 0.763768
H 1.583533 -1.228964 -1.039676
