60
Frame 0, Iteration: 100
C -0.554242 0.476195 -1.572160
C -0.614679 0.454306 1.535161
C -0.566074 1.803195 -0.781615
C -0.615335 1.814127 0.796266
C -0.508495 -0.881355 0.761109
C -0.550343 -0.895326 -0.805452
O 0.665849 -1.613096 -1.163258
O 0.621155 0.437627 2.371071
O 0.621447 2.540901 -1.184774
O 0.650405 0.453678 -2.343884
O 0.673063 -1.585333 1.232180
O 0.599888 2.514879 1.214907
H -1.351613 -1.535493 -1.176119
H -1.356707 0.432310 2.337713
H -1.338014 2.472431 -1.157894
H -1.390506 0.549041 -2.268780
H -1.331933 -1.495196 1.116947
H -1.450116 2.427039 1.147046
C 1.859990 0.484997 -1.552006
C 1.851007 0.489004 1.572002
C 1.841998 1.838999 -0.771999
C 1.837994 1.840999 0.788987
C 1.868017 -0.863998 0.791999
C 1.873000 -0.865990 -0.768995
H 2.754156 -1.447005 -1.064866
H 2.696828 0.568984 2.253963
H 2.666180 2.444651 -1.152313
H 2.593788 0.513373 -2.358111
H 2.720218 -1.488721 1.063410
H 2.608275 2.548601 1.117068
O 0.673820 -7.645682 -2.088897
O 0.655642 -7.685039 2.091519
H -1.373690 -5.273599 -1.997203
H -1.384330 -8.785231 -0.058696
H -1.376862 -5.427946 2.076383
H -1.370625 -4.165729 -0.031804
H -1.306583 -7.670094 -1.960802
H -1.400546 -7.661068 1.945396
C 1.855124 -4.900921 0.032650
C 1.823861 -7.997753 0.002383
C 1.819100 -5.699009 1.382661
C 1.891141 -7.237622 1.363727
C 1.864601 -7.254002 -1.345635
C 1.857889 -5.659379 -1.342944
H 2.613802 -5.247406 -2.009481
H 2.612775 -8.745435 0.006569
H 2.622542 -5.300761 2.002566
H 2.668059 -4.175688 0.128854
H 2.738366 -7.654544 -1.860882
H 2.701049 -7.604382 1.997076
C -0.616536 -4.950504 -0.007421
C -0.587285 -8.036331 -0.026341
C -0.579471 -5.733027 1.398797
C -0.565873 -7.284419 1.351241
C -0.513358 -7.221607 -1.373011
C -0.577431 -5.671823 -1.367256
O 0.622805 -5.260709 -2.067578
O 0.646036 -8.864585 -0.039630
O 0.584507 -5.263533 2.048140
O 0.563388 -4.128556 0.019668
