15
Frame 0, Iteration: 100
C -1.277360 -0.027373 0.020715
X -1.793835 0.010261 -0.611727
X -1.669358 -0.053886 0.680032
C -0.301699 1.181594 0.045364
X -0.376597 1.634842 -0.574912
X -0.389944 1.596742 0.672105
C 1.152714 0.599179 -0.027491
X 1.558856 0.790703 0.581080
X 1.504147 0.884830 -0.660697
C -0.426983 -1.355270 -0.019856
X -0.606619 -1.733047 -0.652326
X -0.576898 -1.812342 0.591343
C 1.082869 -0.938117 -0.081157
X 1.449041 -1.236225 0.556985
X 1.418877 -1.163182 -0.745007
