15
Frame 0, Iteration: 100
C -1.277360 -0.027393 0.020714
X -1.793835 0.010260 -0.611727
X -1.669358 -0.053887 0.680032
C -0.301718 1.181589 0.045364
X -0.376598 1.634842 -0.574912
X -0.389945 1.596742 0.672105
C 1.152703 0.599196 -0.027490
X 1.558855 0.790704 0.581080
X 1.504147 0.884831 -0.660697
C -0.426965 -1.355277 -0.019857
X -0.606618 -1.733047 -0.652326
X -0.576896 -1.812343 0.591343
C 1.082881 -0.938102 -0.081157
X 1.449041 -1.236225 0.556985
X 1.418878 -1.163181 -0.745007
