65
Frame 0, Iteration: 100
C 0.188804 1.540977 1.421025
C -1.163476 2.324675 1.613675
H -0.895884 3.317834 1.956833
C 0.169849 1.073405 -0.053437
C -1.889435 2.357400 0.298377
H -2.069818 3.359118 -0.093344
C -1.118843 1.543895 -0.718037
H -0.906689 2.091838 -1.632563
C -2.005649 -0.953313 2.707551
H -2.187089 -1.595941 3.576374
C 0.172041 0.282804 2.322211
C 0.142799 -0.961867 1.402857
C -1.164536 0.292550 3.136600
H -0.996121 0.275478 4.220976
C -1.173107 -1.690935 1.624091
H -1.045645 -2.716495 1.969801
C -1.934704 -1.676157 0.280552
H -2.132911 -2.695281 -0.057496
C -1.953963 0.319738 -1.160035
H -2.100021 0.348604 -2.247452
C -3.274631 0.335846 -0.358753
H -4.064959 0.283621 -1.113938
C -1.092094 -0.914026 -0.750869
H -0.897046 -1.489169 -1.654933
C -3.240871 -0.915498 0.559870
H -4.120135 -1.486331 0.269016
C -3.335842 -0.475271 2.029024
H -4.282058 -0.809312 2.469783
C -3.249536 1.604409 0.521023
H -4.036319 2.337468 0.330061
C -3.268579 1.104092 2.024374
H -4.073835 1.485209 2.653969
C -1.942986 1.577714 2.723484
H -2.113003 2.226761 3.589122
C 0.183530 -0.473033 -0.063965
C 1.510737 -0.945422 -0.730742
H 1.383981 -1.664478 -1.539828
C 1.437147 -1.772993 1.675108
H 1.323474 -2.816063 1.985593
C 2.264288 -1.729413 0.352367
H 2.461465 -2.764781 0.056083
C 1.521585 0.274355 3.146272
H 1.286854 0.194577 4.205289
C 2.271132 -0.993716 2.740540
H 2.400801 -1.629878 3.618237
C 1.493854 2.312173 1.704053
H 1.347891 3.343548 2.020700
C 2.322037 1.519106 2.820603
H 2.580319 2.043583 3.745230
C 1.530405 1.541984 -0.686309
H 1.325640 2.085950 -1.604021
C 2.304794 0.290230 -1.096160
H 2.668919 0.236359 -2.127110
C 2.377141 2.313207 0.385615
H 2.707549 3.314780 0.065528
C 3.598942 -0.980784 0.611714
H 4.437482 -1.634300 0.370542
C 3.639765 0.254601 -0.306838
H 4.473613 0.314172 -1.017712
C 3.558429 -0.568952 2.105322
H 4.412456 -1.051812 2.579473
C 3.593908 1.011717 2.152095
H 4.471902 1.349750 2.716380
C 3.648098 1.476769 0.683434
H 4.560745 2.070766 0.594656
