15
Frame 0, Iteration: 100
C -1.263101 -0.019669 0.019772
H -1.984880 0.021574 -0.819904
H -1.816028 -0.093305 0.953187
C -0.309800 1.184009 0.064262
H -0.353821 1.817844 -0.821603
H -0.435629 1.819090 0.947952
C 1.145529 0.590666 -0.030194
H 1.771958 0.818496 0.834339
H 1.653699 1.000706 -0.906598
C -0.423247 -1.354054 -0.012191
H -0.683494 -1.930563 -0.897056
H -0.626268 -2.026447 0.829502
C 1.081131 -0.935557 -0.113184
H 1.595470 -1.346783 0.763768
H 1.583533 -1.228963 -1.039676
