65
Frame 0, Iteration: 100
H -12.763775 -1.239629 -0.087115
C -11.673114 -1.343743 -0.023953
N -11.034874 -0.012028 -0.468221
N -11.216452 -1.645260 1.477107
N -11.156183 -2.482472 -0.900860
C -10.181445 -0.353643 -1.703468
C -10.185499 0.512766 0.686803
C -10.240606 -0.530667 1.825594
C -10.365555 -2.904475 1.447597
C -10.380635 -3.451652 0.023871
C -10.243201 -1.879494 -1.900920
C -8.769121 -0.519978 -1.112950
H -10.221779 0.249831 -2.614169
C -8.764283 0.047026 0.370109
H -10.208882 1.577679 0.935206
C -8.847178 -0.949253 1.491798
H -10.241958 -0.014036 2.779505
C -8.894152 -2.470343 1.264158
H -10.573550 -3.684631 2.177043
C -8.903415 -2.990841 -0.151329
H -10.582686 -4.523748 -0.032935
C -8.830376 -2.045851 -1.388406
H -10.258658 -2.198976 -2.935715
O -7.595124 0.016988 -1.830270
O -7.598849 0.938000 0.577539
O -7.766760 -0.694633 2.422370
O -7.864169 -3.104471 2.057562
O -7.923096 -3.992581 -0.312675
O -7.700279 -2.445695 -2.239756
C -6.457954 -0.555886 -1.094514
C -6.510399 -0.019745 0.403913
C -6.555152 -1.049614 1.665356
C -6.612170 -2.605849 1.387669
C -6.630899 -3.207299 -0.134183
C -6.522996 -2.201459 -1.337187
O -5.212344 -0.053834 -1.684424
O -5.303792 0.712250 0.618149
O -5.423311 -0.791112 2.477991
O -5.482271 -3.228050 2.035328
O -5.511691 -4.104372 -0.254746
O -5.339015 -2.573585 -2.106108
C -4.071429 -0.703452 -1.011696
C -4.160735 -0.178135 0.473928
C -4.221045 -1.148249 1.706300
C -4.333382 -2.695465 1.388877
C -4.305874 -3.305693 -0.058662
C -4.188447 -2.273023 -1.257591
O -2.851104 -0.248132 -1.618086
O -2.950358 0.623918 0.629823
O -3.054306 -0.949292 2.601988
O -3.197394 -3.278630 2.114523
O -3.158995 -4.191509 -0.086253
O -2.984888 -2.644388 -1.967360
C -1.737319 -0.829446 -0.911709
C -1.760718 -0.246871 0.584872
C -1.876448 -1.242564 1.816716
C -1.931737 -2.800906 1.502286
C -1.921260 -3.364080 0.040052
C -1.855718 -2.361460 -1.167352
H -0.871591 -0.490753 -1.490719
H -0.855797 0.358486 0.648680
H -1.106461 -1.004510 2.546571
H -1.130414 -3.238722 2.104459
H -1.118134 -4.106057 0.026934
H -0.983470 -2.752678 -1.676997
