10
Frame 0, Iteration: 100
C -1.456431 -0.265218 -0.004251
H -0.867360 0.465983 0.560940
H -2.079062 0.308778 -0.685100
H -2.106072 -0.828243 0.671072
H -0.756442 -0.863725 -0.590784
C 2.388919 -0.420632 -0.000356
H 2.977120 0.167906 0.700575
H 1.781320 0.131497 -0.719014
H 1.719994 -1.011947 0.615681
H 3.052350 -1.130417 -0.485955
