15
Frame 0, Iteration: 100
C -1.274962 -0.042467 0.073610
X -1.809106 0.100636 -0.526767
X -1.646465 -0.191357 0.731743
C -0.296838 1.146624 0.291324
X -0.389056 1.704949 -0.229951
X -0.364062 1.433261 0.987845
C 1.153225 0.594212 0.072609
X 1.578055 0.665915 0.697514
X 1.486865 0.992633 -0.509218
C -0.430554 -1.329678 -0.234433
X -0.630806 -1.582310 -0.921268
X -0.563639 -1.892533 0.287138
C 1.077732 -0.906621 -0.267509
X 1.461684 -1.309237 0.295007
X 1.393478 -1.006317 -0.974502
