65
Frame 0, Iteration: 100
C 0.189059 1.540973 1.421029
C -1.156055 2.332429 1.620013
X -0.974369 3.030753 1.879247
C 0.175537 1.073331 -0.053357
C -1.894794 2.360599 0.296526
X -2.047802 3.077301 0.052923
C -1.114794 1.551196 -0.729352
X -0.960173 1.973204 -1.357080
C -2.011527 -0.948306 2.706224
X -2.157424 -1.412227 3.333469
C 0.169789 0.282834 2.322179
C 0.142003 -0.961857 1.402846
C -1.171773 0.297747 3.137377
X -1.048357 0.288568 3.930052
C -1.181743 -1.692430 1.626504
X -1.084782 -2.409197 1.862420
C -1.945391 -1.684482 0.280888
X -2.113453 -2.424541 0.047941
C -1.943712 0.322330 -1.157667
X -2.054346 0.345397 -1.913577
C -3.270032 0.340806 -0.372272
X -3.862196 0.325975 -0.892354
C -1.101565 -0.915173 -0.751521
X -0.984109 -1.338706 -1.370527
C -3.256011 -0.910848 0.549326
X -3.884717 -1.315976 0.363476
C -3.332186 -0.462542 2.019533
X -3.990802 -0.705325 2.362150
C -3.249859 1.609170 0.519210
X -3.844811 2.109004 0.393375
C -3.270912 1.107624 2.020054
X -3.864237 1.379264 2.435711
C -1.949250 1.576067 2.711999
X -2.097423 2.022056 3.321232
C 0.186558 -0.473072 -0.063922
C 1.514534 -0.954927 -0.721995
X 1.392507 -1.439632 -1.307999
C 1.442332 -1.765857 1.677623
X 1.334827 -2.496860 1.898293
C 2.269981 -1.742456 0.360566
X 2.417150 -2.492420 0.136538
C 1.507866 0.273221 3.154961
X 1.318579 0.233761 3.907537
C 2.264826 -0.993239 2.745892
X 2.364685 -1.435375 3.352492
C 1.501235 2.312730 1.703671
X 1.382070 3.047167 1.933686
C 2.316795 1.514969 2.812407
X 2.474961 1.919606 3.444188
C 1.535202 1.539024 -0.691363
X 1.389683 1.954409 -1.327875
C 2.319003 0.281739 -1.085159
X 2.537954 0.260913 -1.802239
C 2.376263 2.312860 0.386501
X 2.570780 3.060299 0.151179
C 3.603418 -0.987569 0.622422
X 4.201692 -1.449852 0.475860
C 3.638897 0.252438 -0.290733
X 4.243338 0.277498 -0.771074
C 3.566904 -0.565788 2.114834
X 4.187797 -0.868960 2.474164
C 3.602275 1.015723 2.157044
X 4.246634 1.278472 2.551891
C 3.647363 1.478308 0.684251
X 4.263109 1.910215 0.580563
