36
Frame 0, Iteration: 100
C -2.054109 1.179231 -0.005383
C -0.043033 2.389069 -0.058964
C -2.035018 -1.227318 -0.000401
C -0.002679 -2.390922 0.029502
C 2.112449 -1.190289 -0.030758
C 2.058622 1.205259 -0.058610
S -1.752296 2.973144 0.178118
S -3.472419 -0.039501 0.198883
S -1.712807 -2.997837 0.194599
S 1.747003 -2.991076 0.206316
S 3.468151 0.026561 0.179606
S 1.698677 3.005917 0.179780
C 0.007624 1.525652 1.241191
C -1.309627 0.772484 1.308263
C -1.301288 -0.733224 1.267391
C -0.008268 -1.464172 1.262972
C 1.356877 -0.716763 1.229516
C 1.330938 0.778579 1.233850
C 1.291898 0.756750 -1.311009
C -0.016000 1.511004 -1.295007
C -1.334435 0.743847 -1.282997
C -1.315635 -0.803136 -1.319705
C 0.047200 -1.519134 -1.278347
C 1.329496 -0.727261 -1.285722
H 0.109882 2.138592 2.146785
H -1.857253 1.163757 2.174871
H -1.876229 -1.107898 2.123040
H -0.079211 -2.107197 2.146024
H 1.951356 -1.071590 2.077243
H 1.908564 1.184348 2.076947
H 0.007989 2.149475 -2.185240
H 1.952788 1.079609 -2.118526
H 1.951467 -1.031446 -2.129894
H -1.871703 1.077718 -2.171505
H -1.930046 -1.204354 -2.137989
H 0.094190 -2.127346 -2.182825
