36
Frame 0, Iteration: 100
C 0.006117 1.538603 1.225722
C -1.346203 0.749461 1.228483
C -1.301282 -0.773258 1.254974
C -0.009158 -1.504144 1.285466
C 1.367737 -0.743556 1.230238
C 1.317988 0.771862 1.207522
C 1.303793 0.741432 -1.276980
C -0.016005 1.510992 -1.295010
C -1.338241 0.741936 -1.294870
C -1.316983 -0.791995 -1.237773
C -0.002023 -1.530069 -1.249951
C 1.304176 -0.786076 -1.275222
H 0.025891 2.173221 2.120285
H -1.834770 1.054934 2.167597
H -1.825316 -1.030256 2.182917
H -0.035089 -2.078252 2.219040
H 1.992909 -0.991030 2.100627
H 1.881939 1.072377 2.096774
H -0.058898 2.113549 -2.207695
H 1.907456 1.077972 -2.120787
H 1.873890 -1.113401 -2.147654
H -1.872312 0.983403 -2.224876
H -1.793662 -1.123534 -2.164352
H 0.007314 -2.131170 -2.163078
C -2.047314 1.169587 0.002204
C -0.008266 2.414450 -0.038273
C -2.066971 -1.238761 0.011714
C -0.015355 -2.393575 0.008511
C 2.088470 -1.204276 -0.044461
C 2.068996 1.239588 -0.039058
S -1.746197 2.987128 0.156990
S -3.455326 -0.024495 0.228313
S -1.701959 -2.991865 0.204597
S 1.750331 -2.979814 0.182547
S 3.461525 0.015648 0.186943
S 1.714929 3.034424 0.165275
