30
Frame 0, Iteration: 100
C 0.044846 -1.296206 -0.839764
O 1.222585 -1.989994 -1.284262
O 1.240397 0.026199 2.320052
O 1.186553 0.110734 -2.414771
O 1.286121 -2.000039 1.109856
C -0.019219 0.062419 -1.608561
C 0.032722 0.037239 1.515041
C 0.037853 -1.309680 0.722705
O 1.199420 2.138559 -1.224383
O 1.186586 2.110156 1.199512
C -0.013382 1.408873 -0.816983
C -0.017149 1.395882 0.744650
C 2.441075 -1.261687 -0.843283
H 3.278949 -1.871621 -1.162664
H 3.257077 0.185619 2.187800
H 3.218170 0.182261 -2.346587
H 3.377527 -1.759257 1.044641
C 2.429474 0.112825 -1.605265
C 2.427744 0.087328 1.491707
C 2.469162 -1.238884 0.721328
H 3.248646 2.100772 -1.183422
H 3.271297 2.039094 1.018492
C 2.436243 1.458462 -0.819211
C 2.391959 1.473672 0.713426
H -0.710813 -2.002922 -1.182180
H -0.789520 0.088874 2.228199
H -0.856264 -0.016281 -2.306394
H -0.834473 -1.894401 1.025801
H -0.807050 2.005207 -1.265030
H -0.775881 2.102928 1.090934
