30
Frame 0, Iteration: 100
C 0.044828 -1.296207 -0.839764
O 1.222586 -1.989994 -1.284254
O 1.240397 0.026190 2.320049
O 1.186552 0.110734 -2.414771
O 1.286068 -2.000740 1.109782
C -0.019231 0.062418 -1.608561
C 0.032743 0.037240 1.515041
C 0.037998 -1.309000 0.723000
O 1.199425 2.138549 -1.224377
O 1.186586 2.110156 1.199511
C -0.013381 1.408873 -0.816983
C -0.017148 1.395882 0.744650
C 2.441075 -1.261690 -0.843277
H 3.278948 -1.871619 -1.162670
H 3.257064 0.185615 2.187801
H 3.218170 0.182261 -2.346587
H 3.377635 -1.759177 1.044577
C 2.429473 0.112826 -1.605263
C 2.427725 0.087308 1.491714
C 2.469109 -1.239028 0.721375
H 3.248645 2.100772 -1.183422
H 3.271297 2.039092 1.018492
C 2.436244 1.458460 -0.819210
C 2.391958 1.473670 0.713426
H -0.710840 -2.002957 -1.182089
H -0.789504 0.088896 2.228205
H -0.856280 -0.016260 -2.306390
H -0.834619 -1.893544 1.025820
H -0.806913 2.005296 -1.265036
H -0.775880 2.102924 1.090941
