30
Frame 0, Iteration: 100
C 0.028431 -1.296502 -0.839715
O 1.220428 -1.990672 -1.284486
O 1.238568 0.026214 2.321477
O 1.188201 0.110595 -2.412402
O 1.286610 -1.999321 1.109484
C -0.017517 0.062449 -1.608566
C 0.022780 0.037060 1.515071
C 0.037855 -1.309680 0.722705
O 1.200183 2.138572 -1.224656
O 1.186292 2.110852 1.200063
C -0.004960 1.409025 -0.817008
C -0.013691 1.395944 0.744640
C 2.440860 -1.261659 -0.843254
H 3.278850 -1.871593 -1.162646
H 3.257045 0.185614 2.187742
H 3.218106 0.182237 -2.346658
H 3.377506 -1.759269 1.044646
C 2.429626 0.112807 -1.605097
C 2.427535 0.087326 1.491775
C 2.469183 -1.238821 0.721295
H 3.248713 2.100782 -1.183423
H 3.271335 2.039064 1.018489
C 2.436338 1.458514 -0.819238
C 2.391923 1.473742 0.713491
H -0.800520 2.071895 -1.163453
H -0.805484 2.071747 1.074711
H -0.774147 -1.955696 -1.172905
H -0.859570 0.046229 2.161000
H -0.763313 0.033680 -2.406752
H -0.807572 -1.886921 1.106788
