30
Frame 0, Iteration: 100
H -0.724423 -1.921303 -1.249209
H -0.892528 -0.000645 2.092598
H -0.794356 -0.005850 -2.360953
H -0.791340 -1.914779 1.099630
C 0.062759 -1.295884 -0.839818
O 1.258012 -1.988659 -1.266708
O 1.229923 0.023548 2.340819
O 1.204797 0.073179 -2.445064
O 1.250749 -1.996178 1.118785
C -0.003418 0.062703 -1.608609
C 0.031150 0.037211 1.515046
C 0.037995 -1.309000 0.723000
O 1.200768 2.134041 -1.232525
O 1.180808 2.118617 1.209046
C -0.007710 1.408975 -0.817000
C -0.026073 1.395721 0.744677
C 2.467814 -1.241158 -0.859006
H 3.265450 -1.869305 -1.248548
H 3.277355 0.122719 2.229596
H 3.288624 0.125913 -2.310116
H 3.288826 -1.824864 1.083410
C 2.432577 0.098259 -1.638596
C 2.468578 0.096695 1.508148
C 2.452628 -1.223180 0.714932
H 3.264510 2.025321 -1.139382
H 3.197888 2.086380 1.030583
C 2.392702 1.426395 -0.827296
C 2.361039 1.462734 0.705494
H -0.802866 2.000029 -1.267915
H -0.787487 2.100699 1.091214
