30
Frame 0, Iteration: 100
H -0.761679 -1.930898 -1.252994
H -0.892757 -0.000750 2.094950
H -0.797095 0.003341 -2.373249
H -0.790745 -1.913697 1.103700
H -0.746607 2.064607 -1.237386
H -0.864897 1.995475 1.034183
C 0.023091 -1.296598 -0.839699
O 1.242686 -2.021108 -1.255161
O 1.229763 0.041506 2.324667
O 1.209485 0.087555 -2.407046
O 1.258262 -2.003265 1.137368
C -0.016950 0.062460 -1.608568
C 0.030916 0.037207 1.515047
C 0.037853 -1.309680 0.722705
O 1.209004 2.151004 -1.232256
O 1.165052 2.148134 1.170832
C 0.013981 1.409366 -0.817065
C -0.003351 1.396131 0.744609
C 2.426805 -1.269787 -0.854312
H 3.272890 -1.851696 -1.209278
H 3.267293 0.129771 2.257534
H 3.207525 0.084809 -2.379421
H 3.360431 -1.781820 1.043937
C 2.429545 0.126580 -1.611853
C 2.472953 0.088013 1.516941
C 2.464789 -1.233683 0.703234
H 3.231489 2.053356 -1.232873
H 3.186958 2.134881 1.070103
C 2.409345 1.443819 -0.852923
C 2.392231 1.488379 0.708941
