6
Frame 0, Iteration: 100
H -2.949537 0.286811 -0.007809
H -2.223041 0.191145 -0.156061
H 2.749872 0.101852 0.056096
H 3.482782 0.203813 0.169914
H -0.226813 2.838828 -0.003357
H 0.521738 2.817551 -0.058784
