2
Frame 0, Iteration: 100
H -0.160973 0.070554 0.087494
H 0.537973 -0.042554 -0.087494
