2
Frame 0, Iteration: 100
H -0.182969 0.014011 0.000017
H 0.559969 0.013989 -0.000017
