20
Frame 0, Iteration: 100
Si -0.049999 6.016001 -0.000004
H 0.733285 6.983876 0.768185
H -0.877228 6.799262 -0.936525
H -0.966820 5.207653 0.894816
H 0.936561 5.208826 -0.839279
Si -0.050002 -5.948004 -0.000003
H 0.791906 -5.158771 0.936688
H -0.934619 -5.223531 -0.941513
H -0.917722 -6.799009 0.855123
H 0.833904 -6.898449 -0.724297
C 5.999005 0.000002 0.000013
H 6.614684 0.592162 0.673428
H 5.377102 0.631559 -0.630312
H 5.422159 -0.612006 0.695885
H 6.680320 -0.563695 -0.633485
H -5.433439 0.685090 0.629464
H -6.526854 0.684666 -0.662559
H -6.636337 -0.648669 0.596742
H -5.409794 -0.645911 -0.648109
C -5.998998 0.000005 0.000001
