36
Frame 0, Iteration: 100
C 0.006116 1.538601 1.225724
C -1.346208 0.749464 1.228478
C -1.301281 -0.773256 1.254974
C -0.009156 -1.504144 1.285466
C 1.367735 -0.743554 1.230243
C 1.317987 0.771859 1.207524
C 1.303793 0.741429 -1.276981
C -0.016005 1.510992 -1.295010
C -1.338244 0.741937 -1.294870
C -1.316982 -0.791992 -1.237773
C -0.002020 -1.530069 -1.249950
C 1.304176 -0.786075 -1.275221
H 0.025890 2.173222 2.120285
H -1.834766 1.054932 2.167598
H -1.825318 -1.030257 2.182915
H -0.035089 -2.078251 2.219041
H 1.992909 -0.991030 2.100629
H 1.881940 1.072378 2.096773
H -0.058898 2.113552 -2.207692
H 1.907458 1.077973 -2.120785
H 1.873893 -1.113403 -2.147650
H -1.872307 0.983400 -2.224881
H -1.793664 -1.123535 -2.164350
H 0.007315 -2.131169 -2.163079
C -2.047356 1.169606 0.002193
C -0.008273 2.414428 -0.038256
C -2.066968 -1.238727 0.011711
C -0.015322 -2.393578 0.008505
C 2.088459 -1.204257 -0.044430
C 2.068991 1.239553 -0.039048
S -1.746197 2.987129 0.156991
S -3.455327 -0.024494 0.228313
S -1.701958 -2.991864 0.204596
S 1.750332 -2.979814 0.182547
S 3.461526 0.015647 0.186943
S 1.714928 3.034422 0.165275
