30
Frame 0, Iteration: 100
H -0.761717 -1.930921 -1.252915
H -0.892755 -0.000713 2.094972
H -0.797095 0.003341 -2.373250
H -0.790707 -1.913063 1.103838
H -0.746607 2.064607 -1.237386
H -0.864897 1.995477 1.034182
C 0.023076 -1.296599 -0.839699
O 1.242687 -2.021109 -1.255152
O 1.229764 0.041503 2.324665
O 1.209485 0.087555 -2.407046
O 1.258213 -2.003205 1.137365
C -0.016951 0.062460 -1.608568
C 0.030914 0.037207 1.515047
C 0.037998 -1.309000 0.723000
O 1.209004 2.151004 -1.232256
O 1.165052 2.148134 1.170832
C 0.013981 1.409366 -0.817065
C -0.003352 1.396131 0.744609
C 2.426805 -1.269787 -0.854311
H 3.272890 -1.851696 -1.209278
H 3.267293 0.129771 2.257534
H 3.207525 0.084809 -2.379421
H 3.360427 -1.781830 1.043943
C 2.429545 0.126580 -1.611853
C 2.472955 0.088013 1.516941
C 2.464792 -1.233688 0.703237
H 3.231489 2.053356 -1.232873
H 3.186958 2.134881 1.070103
C 2.409345 1.443819 -0.852923
C 2.392231 1.488379 0.708941
