23
Frame 0, Iteration: 100
C -4.032197 -0.044855 -0.026084
H -3.428948 0.678877 0.541172
H -4.656760 0.510929 -0.721421
H -3.409742 -0.712459 -0.623376
N -4.858338 -0.918279 0.853627
H -4.284282 -1.591020 1.356418
H -5.474289 -0.445675 1.511599
C 0.509515 5.192446 -0.001100
H -0.103146 5.847583 -0.625763
H -0.058508 4.583505 0.702806
H 1.208088 4.573809 -0.566476
O 1.348662 6.061531 0.850885
H 1.920421 6.599708 0.275672
C 5.906437 -0.159000 0.000000
H 6.559704 0.504530 0.566521
H 5.251552 0.501612 -0.574906
H 5.302412 -0.760262 0.685528
H 6.509814 -0.803912 -0.637685
C 1.261471 -5.717284 -0.013860
Cl 2.321999 -4.669999 1.034002
Cl 0.237653 -6.735300 1.045781
Cl 2.312725 -6.752869 -1.068915
Cl 0.278182 -4.655419 -1.027980
