23
Frame 0, Iteration: 100
C 5.913890 -0.159000 0.000000
H 6.474332 0.591420 0.571775
H 5.301111 0.393700 -0.709117
H 5.251877 -0.738156 0.647660
H 6.632953 -0.744105 -0.579815
C -4.049670 -0.078987 -0.021182
H -3.422379 0.532847 0.628981
H -4.695089 0.479201 -0.702823
H -3.394725 -0.695986 -0.635643
N -4.902311 -0.953181 0.913111
H -4.315137 -1.515301 1.529597
H -5.548773 -0.433133 1.505122
C 0.525201 5.252586 0.005612
H -0.157409 5.934029 -0.501921
H -0.057635 4.636373 0.689657
H 1.136844 4.678599 -0.698677
O 1.396086 6.120101 0.822143
H 1.994629 6.588309 0.218999
C 1.261065 -5.721141 -0.011175
Cl 2.321999 -4.670000 1.034003
Cl 0.237186 -6.739352 1.048536
Cl 2.312245 -6.756933 -1.066177
Cl 0.277687 -4.659504 -1.025257
