202
Frame 0, Iteration: 100
C -0.827991 0.082006 0.369002
O 0.330989 -0.758000 0.051986
C 1.518003 0.014001 -0.327003
O 2.689992 -0.786999 0.037005
C 3.878021 0.024005 0.324988
O 5.050999 -0.811002 0.046992
C 6.243000 -0.031005 -0.300996
O 7.409999 -0.840009 0.064999
C 8.597001 -0.035002 0.372990
O 9.769999 -0.862004 0.072009
C 10.957011 -0.073995 -0.274992
O 12.129996 -0.884006 0.069001
H -0.782372 0.294185 1.435613
H -0.811803 1.023175 -0.184090
H 1.571916 0.965056 0.207701
H 1.462245 0.236710 -1.392068
H 3.960314 0.398095 1.344657
H 3.912688 0.841408 -0.395669
H 6.214406 0.903602 0.261239
H 6.298697 0.138871 -1.375075
H 8.596910 0.228859 1.429439
H 8.624681 0.759317 -0.376221
H 11.073049 0.825718 0.332797
H 10.966490 0.193732 -1.330805
C -59.598989 -1.934002 0.232011
O -58.134999 -2.007990 0.232992
C -57.474003 -0.700998 0.216997
O -56.037011 -0.984997 0.226996
C -55.200996 0.215993 0.206988
O -53.814998 -0.256988 0.233997
C -52.831995 0.820995 0.347002
O -51.516993 0.190996 0.205002
C -50.431992 1.154001 0.002008
O -49.180998 0.421001 0.219999
C -48.033997 1.296991 0.469013
O -46.831996 0.498006 0.211995
C -45.643993 1.312988 -0.053993
O -44.479006 0.468996 0.224004
C -43.268990 1.237995 0.530992
O -42.125006 0.379006 0.210000
C -40.907000 1.134993 -0.101002
O -39.769988 0.264007 0.211999
C -38.551994 1.005999 0.552001
O -37.413997 0.146004 0.211000
C -36.197006 0.899006 -0.107006
O -35.057007 0.032999 0.213000
C -33.844994 0.781012 0.564992
O -32.698997 -0.063000 0.211011
C -31.492986 0.705993 -0.109991
O -30.340997 -0.144003 0.204004
C -29.138013 0.617987 0.551995
O -27.982008 -0.212998 0.202999
C -26.781999 0.567995 -0.110987
O -25.622994 -0.274000 0.199000
C -24.424982 0.497014 0.547999
O -23.263002 -0.326994 0.198997
C -22.068006 0.463000 -0.111007
O -20.903999 -0.376002 0.190992
C -19.707002 0.399004 0.530991
O -18.545012 -0.425009 0.182999
C -17.350005 0.363991 -0.130000
O -16.185008 -0.471000 0.178002
C -14.991001 0.307003 0.523010
O -13.825998 -0.516004 0.183001
C -12.628005 0.274998 -0.114985
O -11.466007 -0.563996 0.193995
C -10.272989 0.209009 0.554002
O -9.106009 -0.604995 0.199996
C -7.913994 0.193999 -0.099997
O -6.747003 -0.644994 0.186999
C -5.546001 0.131008 0.515006
O -4.387009 -0.689999 0.149002
C -3.205988 0.101991 -0.206991
O -2.028002 -0.715999 0.096009
H -59.841846 -1.509286 1.203853
H -59.949652 -2.966929 0.136151
H -60.034362 -1.313312 -0.550293
H -57.738734 -0.069173 1.065554
H -57.705049 -0.127762 -0.683798
H -55.409744 0.772781 1.128767
H -55.355014 0.728027 -0.744132
H -52.877609 1.132312 1.394620
H -52.967593 1.562634 -0.439464
H -50.580386 1.889400 0.797524
H -50.369645 1.499572 -1.029264
H -48.012197 1.514212 1.535626
H -48.063486 2.163831 -0.192848
H -45.617544 2.149742 0.646218
H -45.625888 1.543264 -1.118670
H -43.227901 1.476880 1.592386
H -43.229682 2.054562 -0.195559
H -40.874683 2.058111 0.478547
H -40.857974 1.297908 -1.178951
H -38.477496 1.223673 1.616462
H -38.481027 1.950968 0.008815
H -36.105805 1.803470 0.497498
H -36.211360 1.113284 -1.174481
H -33.821884 1.122690 1.603309
H -33.769732 1.646838 -0.094834
H -31.429930 1.600450 0.516045
H -31.408638 0.910783 -1.177735
H -29.184127 0.721933 1.637301
H -29.178330 1.527387 -0.051317
H -26.804760 1.482475 0.486132
H -26.861869 0.754759 -1.183605
H -24.344534 0.664749 1.622704
H -24.422519 1.450726 0.010868
H -22.056613 1.368112 0.498806
H -22.080160 0.649475 -1.184269
H -19.686678 0.532725 1.614496
H -19.636242 1.308023 -0.070656
H -17.379447 1.201844 0.577175
H -17.361258 0.629040 -1.187092
H -15.023011 0.487232 1.600322
H -15.031540 1.245119 -0.036605
H -12.698507 1.141915 0.550948
H -12.552073 0.591896 -1.155256
H -10.204915 0.365180 1.629852
H -10.187088 1.140720 -0.007062
H -7.827524 1.036714 0.587585
H -7.974954 0.436574 -1.159972
H -5.579973 0.317677 1.589671
H -5.575101 1.076277 -0.030617
H -3.111340 0.979875 0.439825
H -3.185222 0.292022 -1.281510
C 13.318998 -0.077993 0.368998
O 14.490000 -0.903994 0.058994
C 15.673990 -0.115003 -0.299004
O 16.850004 -0.918012 0.052003
C 18.033984 -0.104999 0.352000
O 19.209999 -0.925002 0.045999
C 20.390004 -0.131000 -0.311001
O 21.571001 -0.925001 0.045002
C 22.747017 -0.105009 0.352999
O 23.931009 -0.912000 0.038994
C 25.100008 -0.104011 -0.323004
O 26.291001 -0.884000 0.031999
C 27.458005 -0.048008 0.336005
O 28.650995 -0.840000 0.018998
C 29.808000 -0.018006 -0.349019
O 31.009997 -0.776003 0.014004
C 32.158986 0.078989 0.327999
O 33.368000 -0.691992 0.021003
C 34.518006 0.150000 -0.322014
O 35.725003 -0.602992 0.028005
C 36.871006 0.254003 0.345006
O 38.080997 -0.512005 0.034005
C 39.233995 0.334004 -0.288999
O 40.436001 -0.446008 0.013992
C 41.610996 0.387000 0.286020
O 42.789998 -0.440003 0.017991
C 43.998002 0.346000 -0.248990
O 45.138999 -0.534993 0.011000
C 46.391999 0.191011 0.232991
O 47.473991 -0.774999 0.031993
C 48.791988 -0.150997 -0.103982
O 49.771000 -1.234008 0.002990
C 51.159008 -0.766007 0.019010
O 51.989994 -1.971012 0.007988
C 53.428000 -1.691994 0.008006
O 54.086001 -2.998995 0.008011
C 55.548996 -2.922996 0.004996
O 56.017008 -4.306993 0.006000
H 13.365540 0.221919 1.415936
H 13.346189 0.828872 -0.239313
H 15.627029 0.878725 0.149494
H 15.687777 -0.077143 -1.388296
H 18.057502 0.279572 1.380004
H 17.946192 0.681184 -0.399137
H 20.404001 0.790904 0.270704
H 20.339732 -0.022026 -1.395233
H 22.864829 0.123551 1.417065
H 22.763549 0.822960 -0.223894
H 25.080893 0.785831 0.312653
H 25.059572 0.031428 -1.403139
H 27.587654 0.041877 1.417352
H 27.530823 0.847537 -0.307504
H 29.818768 0.946268 0.162650
H 29.813492 0.165893 -1.424381
H 32.009574 0.346712 1.376914
H 32.160157 0.954201 -0.324242
H 34.560493 1.125127 0.171091
H 34.550445 0.248173 -1.412470
H 36.841050 0.504874 1.404951
H 36.917924 1.094039 -0.370145
H 39.210089 1.154752 0.430997
H 39.236878 0.631829 -1.342390
H 41.488690 0.604244 1.347234
H 41.707350 1.309041 -0.304756
H 43.996744 1.145441 0.494715
H 44.018599 0.840272 -1.227038
H 46.474406 0.651872 1.216710
H 46.544555 0.862123 -0.613078
H 48.854132 0.488746 0.781272
H 48.910742 0.358700 -1.059175
H 51.316631 -0.289597 0.986180
H 51.352784 -0.138276 -0.853968
H 53.646140 -1.115874 0.908779
H 53.650846 -1.145043 -0.915844
H 55.965897 -2.435658 0.890979
H 55.760320 -2.415222 -0.940913
H 56.981169 -4.279598 0.059678
