350
Frame 0, Iteration: 100
C 0.261912 2.431212 0.217155
O 0.124223 3.186948 -1.055558
O 1.511125 1.632710 0.241333
C 2.681401 2.488941 0.263423
O 2.786430 3.270660 -1.014035
O 3.846734 1.567264 0.223612
C 5.153834 2.220504 0.264303
O 5.279001 2.982513 -1.000693
O 6.177615 1.190092 0.253850
C 7.557240 1.668026 0.274074
O 7.789289 2.451033 -0.963959
O 8.430197 0.499652 0.272041
C 9.869580 0.845961 0.234923
O 10.186650 1.577577 -0.956776
O 10.611498 -0.389399 0.251741
C 12.050175 -0.248154 0.238256
O 12.495571 0.440983 -1.003102
O 12.621770 -1.633938 0.246275
C 14.073851 -1.670685 0.239125
O 14.594696 -1.036171 -0.975220
O 14.476570 -3.078589 0.271905
C 15.933088 -3.307579 0.211155
O 16.539745 -2.735023 -0.987801
O 16.146974 -4.720752 0.264097
C 17.580061 -5.157867 0.274315
O 18.191855 -4.634685 -0.992985
O 17.547486 -6.639170 0.257771
C 18.879403 -7.172898 0.237753
O 19.616340 -6.796822 -1.017970
O 18.775733 -8.600003 0.260617
C 20.050113 -9.366073 0.252591
O 20.792395 -9.091405 -0.950419
O 19.720258 -10.795287 0.283435
C 20.876172 -11.701243 0.264544
O 21.625829 -11.509830 -0.945245
O 20.361132 -13.058021 0.255668
C 21.388410 -14.139675 0.272217
O 22.149488 -14.003427 -0.964409
O 20.716923 -15.410516 0.259944
C 21.597497 -16.529931 0.269902
O 22.390890 -16.561154 -0.959712
O 20.813949 -17.743137 0.254099
C 21.518672 -19.026623 0.247483
O 22.316613 -19.088092 -0.971285
O 20.496449 -20.092972 0.250170
C 21.096088 -21.448364 0.269082
O 21.900443 -21.603987 -0.971363
O 20.019657 -22.407728 0.309795
C 20.441549 -23.833428 0.298276
O 21.184818 -24.089809 -0.953132
O 19.177467 -24.645204 0.242140
C 19.412392 -26.048511 0.257771
O 20.183065 -26.445936 -0.918008
O 18.142537 -26.715328 0.267106
C 18.211211 -28.145396 0.261138
O 18.831857 -28.605446 -0.978256
O 16.781716 -28.650222 0.245703
C 16.654733 -30.131938 0.237356
O 17.238058 -30.622523 -1.008384
O 15.181793 -30.452458 0.265418
C 14.907526 -31.875502 0.249461
O 15.407542 -32.452555 -0.963978
O 13.476068 -31.972892 0.297585
C 12.966093 -33.359547 0.273810
O 13.398053 -34.042700 -0.940985
O 11.482650 -33.276657 0.238687
C 10.847876 -34.579065 0.248458
O 11.165934 -35.282278 -1.008079
O 9.420327 -34.346259 0.268061
C 8.576209 -35.550122 0.269383
O 8.870690 -36.292685 -0.968765
O 7.141943 -35.147994 0.271674
C 6.228236 -36.272436 0.285128
O 6.391729 -37.025350 -0.938595
O 4.915593 -35.671815 0.259678
C 3.797195 -36.575998 0.225870
O 3.815942 -37.401371 -0.948116
O 2.533507 -35.817510 0.239278
C 1.334714 -36.678706 0.229479
O 1.307337 -37.527897 -1.029633
O 0.184285 -35.815802 0.278652
C -1.113110 -36.499061 0.295478
O -1.241034 -37.247699 -0.984206
O -2.171071 -35.425232 0.304991
C -3.497682 -35.933987 0.260054
O -3.730630 -36.695246 -1.000202
O -4.404003 -34.764450 0.279187
C -5.829291 -35.076631 0.264037
O -6.147239 -35.812519 -1.009373
O -6.559343 -33.811689 0.236428
C -8.016121 -33.987524 0.227885
O -8.439034 -34.616323 -1.017216
O -8.570001 -32.608842 0.222317
C -10.025566 -32.524577 0.234377
O -10.524680 -33.132680 -0.992972
O -10.426224 -31.122495 0.254808
C -11.898862 -30.907654 0.228414
O -12.455589 -31.406721 -0.988042
O -12.092251 -29.493836 0.248494
C -13.502975 -29.099434 0.229672
O -14.107396 -29.553974 -0.989029
O -13.572504 -27.626472 0.278522
C -14.931852 -27.028070 0.214234
O -15.593465 -27.391623 -1.016571
O -14.770933 -25.569280 0.221127
C -15.983494 -24.818703 0.202176
O -16.729714 -25.087499 -1.016705
O -15.669403 -23.382476 0.251988
C -16.826265 -22.511760 0.248702
O -17.577335 -22.746740 -1.043899
O -16.295389 -21.122265 0.229220
C -17.375300 -20.086394 0.267848
O -18.136504 -20.207743 -1.024866
O -16.696713 -18.797901 0.198074
C -17.604423 -17.621715 0.228035
O -18.407631 -17.639195 -1.004861
O -16.715475 -16.413611 0.237947
C -17.459197 -15.186500 0.240527
O -18.237849 -15.098369 -1.018439
O -16.482910 -14.106441 0.267513
C -17.123291 -12.756111 0.215435
O -17.888577 -12.579298 -1.058942
O -16.014526 -11.777557 0.260098
C -16.392489 -10.374595 0.259890
O -17.120517 -10.132192 -1.043237
O -15.208239 -9.569152 0.236419
C -15.419223 -8.122506 0.201879
O -16.135114 -7.771729 -1.000074
O -14.094458 -7.538910 0.226496
C -14.178153 -6.037951 0.246535
O -14.810399 -5.592354 -1.033138
O -12.759666 -5.531494 0.246018
C -12.627769 -4.083913 0.237398
O -13.203401 -3.611311 -1.030620
O -11.171931 -3.780121 0.234278
C -10.859303 -2.366088 0.189677
O -11.400331 -1.760077 -1.015650
O -9.455468 -2.228931 0.265799
C -8.960009 -0.845502 0.241214
O -9.396535 -0.233225 -1.069735
O -7.500374 -0.931713 0.280836
C -6.848547 0.357855 0.240592
O -7.166152 1.117172 -1.014800
O -5.382719 0.155689 0.230840
C -4.550832 1.393535 0.262096
O -4.805561 2.119719 -0.960437
O -3.163644 0.934953 0.279068
C -2.202895 2.048802 0.220887
O -2.350342 2.771779 -1.015017
O -0.860608 1.447252 0.312597
H 11.153501 -35.214321 1.078057
H 8.822096 -36.220841 1.096435
H 14.461299 -1.120095 1.093612
H 6.302405 -36.828441 1.221571
H 3.777218 -37.237950 1.083649
H 2.641743 3.114537 1.163217
H 1.328253 -37.417392 1.026792
H -1.123532 -37.167585 1.162806
H 22.052472 -14.137719 1.146916
H -3.628942 -36.527005 1.164425
H -6.088578 -35.617669 1.175446
H 16.386306 -2.845056 1.081878
H -8.292486 -34.509105 1.146218
H -10.412994 -32.993735 1.135416
H 5.271523 2.820115 1.169472
H -12.453046 -31.349412 1.056719
H -13.988834 -29.553048 1.095358
H 22.217244 -16.416152 1.163327
H -15.570009 -27.435786 0.999203
H -16.565783 -25.114558 1.069182
H 18.036863 -4.822261 1.210102
H -17.355338 -22.651765 1.195316
H -17.999134 -20.121903 1.168040
H 7.739440 2.216491 1.199589
H -18.282470 -17.691438 1.080921
H -18.020830 -15.240956 1.173105
H 22.270500 -19.018919 1.035087
H -17.757857 -12.556983 1.081010
H -16.974802 -10.128351 1.150890
H 19.317674 -6.806924 1.162937
H -15.977201 -7.794381 1.074345
H -14.719894 -5.641905 1.129179
H 10.184827 1.466245 1.073349
H -13.137648 -3.645841 1.097378
H -11.272578 -1.767808 0.996270
H 21.689048 -21.594943 1.175309
H -9.285578 -0.319951 1.147964
H -7.225608 0.919471 1.095005
H 20.706359 -9.021001 1.057253
H -4.807888 2.002472 1.131048
H 20.005839 -26.155061 1.159632
H -2.294310 2.750532 1.049332
H 12.466822 0.209809 1.136378
H 18.629876 -28.518421 1.197597
H 21.056270 -24.039249 1.180141
H 17.124207 -30.587294 1.112541
H 0.211926 3.146427 1.039091
H 15.321341 -32.300643 1.160220
H 13.344010 -33.896236 1.152730
H 21.544513 -11.542542 1.113597
C 10.810653 -34.577990 -2.265620
O 9.375305 -34.341001 -2.231032
C 8.572124 -35.554623 -2.227483
O 7.171342 -35.140803 -2.243284
C 6.253246 -36.262770 -2.217147
O 4.895000 -35.685999 -2.280591
C 3.779326 -36.624743 -2.269310
O 2.534527 -35.864599 -2.279181
C 1.356829 -36.693140 -2.249679
O 0.196999 -35.796120 -2.214979
C -1.122354 -36.460155 -2.224811
O -2.147611 -35.415483 -2.289650
C -3.512156 -35.872462 -2.233371
O -4.397278 -34.747360 -2.260492
C -5.816943 -35.084803 -2.257542
O -6.558505 -33.808271 -2.241985
C -8.036294 -33.945843 -2.253710
O -8.579998 -32.575474 -2.265717
C -10.043591 -32.516334 -2.260715
O -10.458319 -31.141206 -2.292278
C -11.923961 -30.943798 -2.243549
O -12.064573 -29.499071 -2.262971
C -13.497398 -29.070422 -2.258256
O -13.561369 -27.600062 -2.232400
C -14.903668 -27.008685 -2.253726
O -14.720027 -25.543918 -2.235751
C -15.967922 -24.796540 -2.252093
O -15.668875 -23.383057 -2.297812
C -16.824653 -22.512741 -2.262263
O -16.305134 -21.145835 -2.287952
C -17.345341 -20.085245 -2.261480
O -16.681518 -18.811151 -2.248934
C -17.578152 -17.652226 -2.303348
O -16.671782 -16.439522 -2.259399
C -17.437665 -15.169028 -2.281850
O -16.501331 -14.094281 -2.283815
C -17.121119 -12.790952 -2.304017
O -15.996343 -11.824366 -2.267413
C -16.385579 -10.447151 -2.296959
O -15.165990 -9.608928 -2.224288
C -15.423436 -8.135200 -2.249162
O -14.112072 -7.482009 -2.266044
C -14.120951 -6.018406 -2.279729
O -12.752215 -5.524092 -2.252751
C -12.606066 -4.082217 -2.264514
O -11.210179 -3.777659 -2.263662
C -10.915251 -2.356690 -2.267871
O -9.430205 -2.219391 -2.229881
C -8.903551 -0.844500 -2.289562
O -7.437255 -0.914323 -2.240896
C -6.814753 0.389175 -2.228549
O -5.367034 0.183562 -2.288357
C -4.559797 1.380673 -2.226501
O -3.153494 0.957420 -2.265910
C -2.186618 2.049679 -2.242363
O -0.888701 1.445696 -2.253814
C 0.211181 2.397377 -2.241746
O 1.494564 1.658411 -2.273092
C 2.714320 2.511450 -2.269320
O 3.851167 1.588845 -2.245556
C 5.176689 2.268188 -2.231738
O 6.188955 1.209505 -2.263547
C 7.583391 1.697472 -2.218350
O 8.451390 0.518617 -2.217852
C 9.858041 0.887678 -2.272206
O 10.593203 -0.401968 -2.288499
C 12.076747 -0.266476 -2.214379
O 12.625714 -1.623022 -2.225103
C 14.120915 -1.672109 -2.245316
O 14.469997 -3.086937 -2.246621
C 15.942418 -3.285477 -2.256745
O 16.158048 -4.721321 -2.260723
C 17.605053 -5.154045 -2.232291
O 17.627953 -6.622657 -2.236299
C 18.914230 -7.175658 -2.234352
O 18.768196 -8.619698 -2.197381
C 20.053144 -9.404665 -2.208805
O 19.718221 -10.803776 -2.250146
C 20.912404 -11.749408 -2.238063
O 20.370680 -13.094399 -2.230443
C 21.411770 -14.117302 -2.231914
O 20.729249 -15.435641 -2.242727
C 21.617260 -16.551453 -2.208248
O 20.780516 -17.776475 -2.266417
C 21.543700 -19.030996 -2.201677
O 20.543951 -20.090650 -2.260251
C 21.163251 -21.435904 -2.248420
O 20.031720 -22.409541 -2.224676
C 20.448401 -23.809539 -2.212814
O 19.228460 -24.589819 -2.261300
C 19.459800 -26.062304 -2.237711
O 18.104957 -26.731219 -2.189421
C 18.204073 -28.153527 -2.204385
O 16.807255 -28.605139 -2.286894
C 16.651183 -30.118109 -2.231104
O 15.220928 -30.416497 -2.205747
C 14.942752 -31.857446 -2.208707
O 13.460937 -31.976631 -2.235904
C 12.974634 -33.382700 -2.237757
O 11.547239 -33.301006 -2.213665
H -8.369500 -34.518316 -3.120835
H -10.440034 -33.137477 -3.067359
H -12.390414 -31.405540 -3.115789
H -13.987584 -29.481274 -3.143081
H -15.428780 -27.376726 -3.136116
H 14.443853 -1.245517 -3.198350
H -16.494631 -25.044923 -3.173865
H -17.488733 -22.693775 -3.105668
H -17.981674 -20.185464 -3.139181
H 0.099818 3.139307 -3.029008
H -18.106187 -17.761647 -3.259895
H 2.774917 3.255779 -3.067993
H -18.012223 -15.119502 -3.210367
H -17.788236 -12.618516 -3.151883
H 7.780122 2.279080 -3.118386
H -17.062526 -10.267711 -3.137497
H 10.044113 1.497391 -3.162881
H -16.059182 -7.779650 -3.064046
H 12.458446 0.333023 -3.040985
H 22.228911 -19.038173 -3.046278
H -14.623528 -5.725711 -3.201172
H 16.452507 -2.810260 -3.096691
H -13.098481 -3.719808 -3.166302
H 18.140383 -4.690810 -3.061989
H -11.243320 -1.883312 -3.194159
H 19.462182 -6.888968 -3.138058
H -9.293794 -0.314610 -3.160313
H 20.687569 -9.274086 -3.085442
H -7.178335 0.999041 -3.051002
H 21.551720 -11.604750 -3.115629
H -4.784646 2.046925 -3.062603
H 21.995484 -13.924595 -3.141493
H -2.395704 2.696254 -3.096163
H 22.265153 -16.559463 -3.082922
H 5.293440 2.974434 -3.054298
H 21.899415 -21.596072 -3.042139
H 21.062060 -23.986531 -3.096215
H 20.037103 -26.307142 -3.134560
H 18.791761 -28.467508 -3.068149
H 17.123591 -30.525301 -3.126102
H 15.311257 -32.402858 -3.079154
H 13.358520 -33.829786 -3.157677
H 11.041005 -35.066276 -3.214413
H 8.774579 -36.160085 -3.113758
H 6.398168 -36.943208 -3.060157
H 3.895454 -37.277200 -3.135890
H 1.332583 -37.272014 -3.169444
H -1.233645 -37.062712 -3.125876
H -3.615037 -36.456217 -3.142228
H -6.079517 -35.636861 -3.165094
