102
Frame 0, Iteration: 100
C -0.855000 -0.009000 -0.032997
H -0.661617 0.868954 0.590963
H -1.721554 -0.559255 0.328555
H -1.076001 0.335988 -1.041600
O 0.197000 -1.020000 -0.013883
C 1.704000 -0.029000 -0.067375
H 1.778066 0.652160 0.781058
H 1.706158 0.339378 -1.091128
O 2.757000 -1.040000 0.008488
C 4.264000 -0.049000 0.013524
H 4.363619 0.662803 0.834750
H 4.247984 0.365436 -0.989241
O 5.317000 -1.060000 0.002231
C 6.824000 -0.069000 0.018818
H 6.941002 0.706404 0.778813
H 6.774121 0.437575 -0.940891
O 7.877000 -1.080000 -0.014412
C 9.384000 -0.089000 -0.040536
H 9.427288 0.640714 0.769522
H 9.435982 0.376906 -1.021514
O 10.437000 -1.100000 0.020100
C 11.944000 -0.109000 -0.080562
H 12.123650 0.588013 0.737417
H 11.957617 0.411397 -1.038595
O 12.997000 -1.120000 0.023454
C 14.504000 -0.129000 -0.057938
H 14.558983 0.552076 0.791841
H 14.397863 0.339274 -1.035708
O 15.557000 -1.140000 -0.039926
C 17.064000 -0.149000 -0.030446
H 17.163238 0.612770 0.743274
H 17.152153 0.287721 -1.023777
O 18.117000 -1.160000 0.021883
C 19.624000 -0.169000 -0.034455
H 19.707908 0.466016 0.846689
H 19.690966 0.339122 -0.996755
O 20.677000 -1.180000 0.036632
C 22.184000 -0.189000 -0.020123
H 22.338149 0.521071 0.790635
H 22.143268 0.313840 -0.983995
O 23.237000 -1.200000 0.014926
C 24.744000 -0.209000 -0.050473
H 24.831342 0.483329 0.786505
H 24.786888 0.270949 -1.025231
O 25.797000 -1.220000 -0.013429
C 27.304000 -0.229000 -0.019842
H 27.393568 0.524917 0.762237
H 27.358117 0.244115 -1.000235
O 28.357000 -1.240000 0.046383
C 29.864000 -0.249000 -0.017413
H 29.917613 0.478622 0.797963
H 29.798454 0.198254 -1.007326
O 30.917000 -1.260000 0.076299
C 32.424000 -0.269000 -0.032434
H 32.619645 0.523626 0.697437
H 32.397956 0.187721 -1.019131
O 33.477000 -1.280000 -0.011190
C 34.984000 -0.289000 -0.069555
H 35.025267 0.533968 0.647409
H 34.865656 0.058449 -1.091523
O 36.037000 -1.300000 -0.013491
C 37.544000 -0.309000 0.002143
H 37.660279 0.394014 0.828685
H 37.580457 0.120225 -0.997068
O 38.597000 -1.320000 0.056022
C 40.104000 -0.329000 -0.059102
H 40.195200 0.426594 0.723592
H 40.030345 0.136853 -1.042270
O 41.157000 -1.340000 0.011321
C 42.664000 -0.349000 -0.009461
H 42.778186 0.393711 0.782214
H 42.580826 0.091854 -0.999269
O 43.717000 -1.360000 0.037634
C 45.224000 -0.369000 0.011765
H 45.371776 0.311673 0.850428
H 45.301338 0.162407 -0.941084
O 46.277000 -1.380000 0.066283
C 47.784000 -0.389000 -0.055199
H 47.866278 0.440068 0.657005
H 47.799918 -0.115698 -1.107013
O 48.837000 -1.400000 0.036143
C 50.344000 -0.409000 0.038246
H 50.449478 0.321411 0.840389
H 50.256681 0.047390 -0.944215
O 51.397000 -1.420000 0.017623
C 52.904000 -0.429000 -0.020671
H 52.988327 0.238112 0.835984
H 52.923315 0.051099 -0.997898
O 53.957000 -1.440000 -0.006167
C 55.464000 -0.449000 -0.057482
H 55.572307 0.200179 0.817806
H 55.458917 0.036116 -1.030583
O 56.517000 -1.460000 -0.024223
C 58.024000 -0.469000 -0.029954
H 58.116033 0.272081 0.768714
H 58.088897 0.004641 -1.005290
O 59.077000 -1.480000 0.005521
C 60.584000 -0.489000 -0.017214
H 60.711343 0.221092 0.805026
H 60.634447 -0.124250 -1.038797
O 61.637000 -1.500000 0.032151
H 62.509481 -1.086552 0.116743
