200
Frame 0, Iteration: 100
C 0.187000 1.923008 0.019987
H 0.020196 2.551348 0.901424
H 0.175928 2.454432 -0.931556
O 1.377719 1.136712 0.018041
C 2.583009 1.988988 0.020991
H 2.618544 2.590916 0.930640
H 2.606589 2.569352 -0.902913
O 3.686402 1.014702 -0.021501
C 4.967997 1.754984 0.021005
H 5.063775 2.221001 1.003748
H 5.104058 2.402090 -0.845794
O 5.942711 0.663186 0.000731
C 7.305992 1.224002 0.021003
H 7.459639 1.697840 0.997568
H 7.514994 1.864549 -0.838939
O 8.126535 0.071722 -0.006425
C 9.558004 0.404005 0.020991
H 9.823305 0.917432 0.945102
H 9.766404 0.920440 -0.916514
O 10.258216 -0.871493 0.008099
C 11.690009 -0.690995 0.021005
H 12.024447 -0.228045 0.956740
H 12.108373 -0.157920 -0.835964
O 12.211875 -2.015232 -0.003589
C 13.668005 -2.044998 0.020994
H 14.073560 -1.519832 0.886213
H 14.003287 -1.638679 -0.933545
O 13.971339 -3.449367 -0.024780
C 15.459992 -3.637002 0.019983
H 15.881206 -3.124507 0.887959
H 15.892429 -3.239049 -0.900657
O 15.654893 -5.090052 0.029263
C 17.038019 -5.440994 0.020003
H 17.527863 -5.097967 0.931375
H 17.563013 -5.080517 -0.867182
O 17.041968 -6.871416 -0.025038
C 18.378005 -7.428006 0.021011
H 18.802244 -7.187970 0.995836
H 18.992273 -7.138402 -0.833660
O 18.158411 -8.842245 -0.006686
C 19.457995 -9.568002 0.020992
H 20.117973 -9.300976 0.850519
H 19.978121 -9.393274 -0.920750
O 19.094325 -10.963561 -0.009127
C 20.260990 -11.826992 0.020000
H 20.750818 -11.676665 0.982030
H 20.887166 -11.625729 -0.850380
O 19.727990 -13.169793 0.031031
C 20.774998 -14.168016 0.021005
H 21.369203 -14.114759 0.935536
H 21.316591 -14.156553 -0.925835
O 20.025074 -15.427714 -0.005112
C 20.991006 -16.554994 0.021017
H 21.581845 -16.563406 0.938335
H 21.674986 -16.448792 -0.832560
O 20.118222 -17.705155 -0.018702
C 20.905975 -18.951001 0.019984
H 21.542532 -19.048507 0.899845
H 21.427983 -18.957923 -0.939004
O 19.852249 -20.030169 -0.007849
C 20.521989 -21.317012 0.021005
H 20.964469 -21.415896 1.012183
H 21.227014 -21.452471 -0.799259
O 19.397918 -22.252474 0.021155
C 19.843988 -23.616005 0.022011
H 20.353976 -23.806955 0.968700
H 20.444886 -23.758135 -0.876339
O 18.574047 -24.361673 -0.029900
C 18.883990 -25.812984 0.020005
H 19.339980 -25.980638 0.995796
H 19.510007 -26.064895 -0.836093
O 17.524615 -26.421595 -0.010491
C 17.657004 -27.871000 0.020013
H 18.058004 -28.139186 1.003922
H 18.232290 -28.265971 -0.820623
O 16.285792 -28.260865 -0.035890
C 16.180990 -29.759977 0.022008
H 16.631465 -30.057140 0.970591
H 16.670139 -30.078061 -0.899008
O 14.752921 -30.063185 -0.043685
C 14.479991 -31.449022 0.021006
H 14.836145 -31.901067 0.961577
H 14.897446 -31.938881 -0.858953
O 12.993762 -31.536126 0.033476
C 12.580005 -32.911012 0.020004
H 12.910688 -33.431086 0.920798
H 12.924808 -33.456435 -0.858578
O 11.134306 -32.811358 0.019014
C 10.512995 -34.124007 0.020998
H 10.777171 -34.645278 0.941147
H 10.782242 -34.756945 -0.834827
O 9.075618 -33.830607 -0.020196
C 8.310011 -35.067993 0.020990
H 8.572389 -35.558489 0.958556
H 8.557879 -35.608083 -0.893641
O 6.945345 -34.593660 -0.007262
C 6.006005 -35.728991 0.020009
H 6.131734 -36.100246 1.037729
H 6.191204 -36.430059 -0.795819
O 4.702406 -35.130541 -0.035744
C 3.636991 -36.094999 0.021003
H 3.646290 -36.689791 0.940171
H 3.606834 -36.674695 -0.903569
O 2.393117 -35.280819 -0.000603
C 1.240988 -36.161990 0.021985
H 1.293145 -36.790295 0.912692
H 1.204438 -36.690719 -0.931236
O 0.118365 -35.211298 0.004933
C -1.144003 -35.926999 0.020999
H -1.223136 -36.598771 0.875942
H -1.180842 -36.463722 -0.927698
O -2.155642 -34.848875 0.046753
C -3.481021 -35.394987 0.019992
H -3.690692 -36.010202 0.897355
H -3.700993 -35.908405 -0.915968
O -4.367085 -34.186201 0.017977
C -5.732991 -34.574995 0.020999
H -5.891852 -35.096254 0.965247
H -5.906206 -35.130929 -0.900504
O -6.397083 -33.309096 0.013354
C -7.864007 -33.477995 0.021996
H -8.235037 -33.993983 0.908930
H -8.227203 -33.942438 -0.894725
O -8.358727 -32.107363 0.036710
C -9.840993 -32.121990 0.019988
H -10.273146 -32.572762 0.913166
H -10.177821 -32.529780 -0.935206
O -10.210869 -30.706616 0.011320
C -11.633000 -30.530009 0.019994
H -12.080566 -30.911838 0.949101
H -12.056056 -30.972288 -0.884385
O -11.783415 -29.072152 -0.006414
C -13.210979 -28.726014 0.021990
H -13.621993 -29.198211 0.915056
H -13.575749 -29.095559 -0.936772
O -13.164569 -27.296329 -0.034548
C -14.549992 -26.738012 0.019996
H -15.065956 -27.009934 0.944603
H -15.099547 -27.065671 -0.862793
O -14.372623 -25.330178 -0.077467
C -15.630003 -24.598009 0.020997
H -16.182660 -24.940070 0.901615
H -16.170295 -24.764973 -0.911272
O -15.265882 -23.190532 -0.024323
C -16.433996 -22.339989 0.021010
H -16.880608 -22.451830 1.014076
H -17.093314 -22.554109 -0.819802
O -15.911241 -20.984391 -0.042789
C -16.948001 -19.999014 0.019997
H -17.467753 -20.087978 0.984372
H -17.544169 -20.102303 -0.891296
O -16.226250 -18.763548 0.002926
C -17.165002 -17.611993 0.021000
H -17.771096 -17.542902 0.928737
H -17.794536 -17.601943 -0.876281
O -16.332518 -16.433628 0.034619
C -17.080995 -15.216013 0.020997
H -17.550638 -15.213265 1.005213
H -17.707585 -15.275767 -0.880073
O -16.057877 -14.159635 0.026126
C -16.697986 -12.849987 0.022005
H -17.256174 -12.696174 0.945480
H -17.236720 -12.676443 -0.910272
O -15.557602 -11.902841 0.001353
C -16.020996 -10.549993 0.020004
H -16.653269 -10.302700 0.873128
H -16.586803 -10.423975 -0.904940
O -14.782057 -9.732235 0.030951
C -15.061005 -8.354001 0.021002
H -15.538196 -8.140131 0.977323
H -15.690623 -8.121230 -0.838895
O -13.696736 -7.728849 0.024220
C -13.833986 -6.295004 0.022007
H -14.318009 -6.100261 0.979582
H -14.364964 -6.003585 -0.885509
O -12.406268 -5.900464 0.027269
C -12.358000 -4.405994 0.020991
H -12.748611 -3.981757 0.946221
H -12.842218 -3.950233 -0.844101
O -10.986049 -4.125362 0.009437
C -10.655999 -2.717996 0.020991
H -11.007461 -2.247896 0.949453
H -10.994559 -2.308207 -0.935268
O -9.217466 -2.638272 0.007256
C -8.756007 -1.255995 0.021992
H -9.040830 -0.864014 1.002803
H -9.131278 -0.660086 -0.815167
O -7.356819 -1.368651 -0.002558
C -6.687988 -0.043984 0.020004
H -6.954742 0.435817 0.964883
H -6.945700 0.649567 -0.796983
O -5.247958 -0.303566 -0.019080
C -4.484992 0.897988 0.020999
H -4.742814 1.367722 0.979204
H -4.657592 1.521665 -0.856377
O -3.115251 0.415563 0.023508
C -2.180999 1.556998 0.021994
H -2.336113 2.151002 0.926156
H -2.315713 2.149588 -0.892578
O -0.838903 0.927047 0.006744
