202
Frame 0, Iteration: 100
C -0.828026 0.082000 0.355969
O 0.330872 -0.758000 -0.011771
C 1.517974 0.014000 -0.340189
O 2.690042 -0.787000 0.057746
C 3.877944 0.024000 0.297024
O 5.050922 -0.811000 0.008209
C 6.243034 -0.031000 -0.284051
O 7.409969 -0.840000 0.049708
C 8.596977 -0.035000 0.361467
O 9.770074 -0.862000 0.108920
C 10.957055 -0.074000 -0.247521
O 12.130023 -0.884000 0.080680
H -0.759460 0.292077 1.419291
H -0.827494 1.027580 -0.193215
H 1.560575 0.961537 0.202355
H 1.479172 0.242152 -1.404381
H 3.971225 0.393501 1.318558
H 3.903697 0.848601 -0.414789
H 6.212039 0.904893 0.278387
H 6.302971 0.147114 -1.354581
H 8.586358 0.231119 1.419648
H 8.632397 0.759366 -0.384932
H 11.076240 0.832874 0.348550
H 10.961492 0.187469 -1.305517
C -59.598950 -1.934000 0.257140
O -58.135051 -2.008000 0.207775
C -57.474017 -0.701000 0.208274
O -56.037048 -0.985000 0.203025
C -55.201105 0.216000 0.154312
O -53.815021 -0.257000 0.223663
C -52.832006 0.821000 0.343999
O -51.516940 0.191000 0.234780
C -50.431946 1.154000 0.029103
O -49.181014 0.421000 0.213250
C -48.033915 1.297000 0.511664
O -46.832031 0.498000 0.196378
C -45.643947 1.313000 -0.027567
O -44.478977 0.469000 0.235562
C -43.269015 1.238000 0.523636
O -42.125009 0.379000 0.205707
C -40.907005 1.135000 -0.103564
O -39.770029 0.264000 0.197544
C -38.552014 1.006000 0.544950
O -37.414007 0.146000 0.207710
C -36.197045 0.899000 -0.129714
O -35.057010 0.033000 0.208091
C -33.844985 0.781000 0.572528
O -32.698911 -0.063000 0.255450
C -31.492923 0.706000 -0.071694
O -30.340964 -0.144000 0.221770
C -29.138036 0.618000 0.534038
O -27.982011 -0.213000 0.197355
C -26.781886 0.568000 -0.053980
O -25.623002 -0.274000 0.197806
C -24.425055 0.497000 0.520321
O -23.263027 -0.327000 0.185729
C -22.068027 0.463000 -0.124715
O -20.904076 -0.376000 0.153256
C -19.707105 0.399000 0.478509
O -18.545005 -0.425000 0.180339
C -17.350031 0.364000 -0.145475
O -16.184973 -0.471000 0.191378
C -14.990965 0.307000 0.540723
O -13.825953 -0.516000 0.206584
C -12.627902 0.275000 -0.066136
O -11.466051 -0.564000 0.168535
C -10.272996 0.209000 0.555939
O -9.106042 -0.605000 0.179148
C -7.913996 0.194000 -0.098098
O -6.746985 -0.645000 0.194343
C -5.545991 0.131000 0.519743
O -4.386983 -0.690000 0.157678
C -3.205940 0.102000 -0.177163
O -2.027902 -0.716000 0.144917
H -59.837501 -1.503846 1.227169
H -59.949657 -2.965534 0.146938
H -60.037114 -1.320693 -0.529550
H -57.735923 -0.074499 1.063054
H -57.708041 -0.122061 -0.686710
H -55.408087 0.759948 1.079308
H -55.355946 0.740136 -0.793809
H -52.886692 1.135477 1.387733
H -52.960133 1.561542 -0.448655
H -50.575134 1.896838 0.816457
H -50.377743 1.494327 -1.005741
H -48.010219 1.510710 1.580236
H -48.064122 2.156646 -0.157234
H -45.621552 2.153801 0.668177
H -45.620980 1.544852 -1.091567
H -43.224844 1.477338 1.586927
H -43.231945 2.055328 -0.200040
H -40.873124 2.056164 0.481276
H -40.859969 1.301634 -1.179268
H -38.480275 1.221276 1.609365
H -38.479180 1.953023 0.005053
H -36.105504 1.799111 0.480949
H -36.211696 1.114028 -1.197466
H -33.831353 1.128872 1.609150
H -33.763414 1.641420 -0.092559
H -31.426167 1.612677 0.538921
H -31.415388 0.902513 -1.139993
H -29.178879 0.725134 1.618866
H -29.180770 1.529264 -0.067499
H -26.803406 1.492445 0.530544
H -26.859467 0.759364 -1.125728
H -24.343282 0.662609 1.593624
H -24.423677 1.456866 -0.005670
H -22.053228 1.363746 0.492025
H -22.085203 0.655785 -1.197233
H -19.694913 0.529377 1.560008
H -19.631752 1.319484 -0.104260
H -17.381972 1.201663 0.560333
H -17.358265 0.626057 -1.206204
H -15.025665 0.491718 1.619198
H -15.030263 1.241495 -0.025020
H -12.689966 1.150528 0.588213
H -12.562840 0.591772 -1.107648
H -10.205856 0.358244 1.633148
H -10.185626 1.142531 -0.001648
H -7.832110 1.036467 0.589773
H -7.968648 0.438222 -1.158623
H -5.579705 0.319371 1.594517
H -5.575443 1.075472 -0.027367
H -3.116923 0.988038 0.458157
H -3.177419 0.285413 -1.253952
C 13.318996 -0.078000 0.366952
O 14.489932 -0.904000 0.025088
C 15.674043 -0.115000 -0.277336
O 16.849981 -0.918000 0.042510
C 18.034099 -0.105000 0.401304
O 19.209974 -0.925000 0.032964
C 20.390009 -0.131000 -0.306417
O 21.571013 -0.925000 0.051274
C 22.746983 -0.105000 0.344721
O 23.930956 -0.912000 0.016999
C 25.099924 -0.104000 -0.361144
O 26.291002 -0.884000 0.032775
C 27.458026 -0.048000 0.349087
O 28.650993 -0.840000 0.015261
C 29.807895 -0.018000 -0.401312
O 31.010055 -0.776000 0.041383
C 32.159022 0.079000 0.338987
O 33.367981 -0.692000 0.011469
C 34.517899 0.150000 -0.372501
O 35.725033 -0.603000 0.044722
C 36.871075 0.254000 0.382454
O 38.081049 -0.512000 0.058556
C 39.233997 0.334000 -0.290698
O 40.435969 -0.446000 -0.001674
C 41.611108 0.387000 0.339906
O 42.789931 -0.440000 -0.016676
C 43.998011 0.346000 -0.243262
O 45.139002 -0.535000 0.011779
C 46.392014 0.191000 0.239907
O 47.473941 -0.775000 0.002661
C 48.792115 -0.151000 -0.046352
O 49.770921 -1.234000 -0.036460
C 51.159033 -0.766000 0.035314
O 51.989904 -1.971000 -0.040059
C 53.428048 -1.692000 0.032014
O 54.086071 -2.999000 0.043403
C 55.548996 -2.923000 0.002888
O 56.017010 -4.307000 0.011220
H 13.375047 0.219535 1.413522
H 13.339619 0.830370 -0.240605
H 15.625699 0.882083 0.167660
H 15.692163 -0.068312 -1.361586
H 18.057509 0.278580 1.430639
H 17.945592 0.674695 -0.351670
H 20.401005 0.791802 0.273634
H 20.343979 -0.020687 -1.390850
H 22.870211 0.122557 1.407245
H 22.759820 0.824741 -0.231046
H 25.077684 0.776398 0.283113
H 25.063316 0.031988 -1.443143
H 27.589242 0.040493 1.430311
H 27.531022 0.846507 -0.296367
H 29.816071 0.939005 0.121585
H 29.820192 0.161832 -1.483467
H 32.017004 0.349685 1.388275
H 32.154105 0.950877 -0.317027
H 34.558734 1.114007 0.141487
H 34.557690 0.246168 -1.458973
H 36.839532 0.507804 1.445270
H 36.919575 1.089133 -0.338974
H 39.215502 1.157601 0.422768
H 39.229469 0.628443 -1.351005
H 41.491967 0.596699 1.404399
H 41.706229 1.304168 -0.260044
H 43.991620 1.143500 0.501333
H 44.025357 0.843207 -1.220391
H 46.479518 0.648202 1.228901
H 46.540653 0.864496 -0.600877
H 48.856708 0.488674 0.836161
H 48.909620 0.360798 -1.000139
H 51.314885 -0.299373 1.007688
H 51.353619 -0.130952 -0.832132
H 53.633547 -1.109500 0.933028
H 53.663962 -1.149985 -0.891497
H 55.971682 -2.435676 0.886875
H 55.754004 -2.416404 -0.944139
H 56.981539 -4.279528 0.059514
