20
Frame 0, Iteration: 100
Si -0.045487 6.020346 -0.011565
H 0.735447 6.986099 0.767233
H -0.878691 6.804219 -0.941805
H -0.961228 5.213480 0.888209
H 0.939842 5.210137 -0.843326
Si -0.060833 -5.953734 -0.016440
H 0.782142 -5.165805 0.925040
H -0.943412 -5.219529 -0.951900
H -0.920441 -6.799369 0.850230
H 0.832581 -6.901094 -0.730711
C 5.997957 -0.005821 0.035674
H 6.619727 0.594520 0.694501
H 5.382472 0.620777 -0.606849
H 5.413682 -0.622971 0.720600
H 6.672352 -0.562106 -0.611063
H -5.424173 0.695044 0.644211
H -6.520449 0.685701 -0.651625
H -6.631533 -0.644683 0.605485
H -5.408392 -0.638854 -0.635907
C -5.991128 0.009447 0.015070
