2
Frame 0, Iteration: 100
H 1.737023 0.071015 0.000024
H 0.997023 0.017033 -0.081026
