30
Frame 0, Iteration: 100
C 0.027658 -1.296516 -0.839712
O 1.220435 -1.989498 -1.283689
O 1.238472 0.026286 2.319924
O 1.188206 0.110547 -2.410417
O 1.286529 -1.997816 1.108796
C -0.018167 0.062438 -1.608564
C 0.022004 0.037046 1.515073
C 0.037999 -1.309000 0.723000
O 1.200225 2.137009 -1.223798
O 1.186318 2.109608 1.198928
C -0.005834 1.409009 -0.817006
C -0.014333 1.395933 0.744642
C 2.441655 -1.262208 -0.843727
H 3.279974 -1.871593 -1.162644
H 3.258219 0.185647 2.187840
H 3.220001 0.182284 -2.346338
H 3.377792 -1.760287 1.045161
C 2.430512 0.112824 -1.606259
C 2.428402 0.087254 1.492661
C 2.469906 -1.239630 0.721620
H 3.249851 2.100851 -1.183386
H 3.271735 2.040020 1.019167
C 2.436806 1.459513 -0.819722
C 2.392890 1.474233 0.714190
H -0.802696 2.070532 -1.162717
H -0.807657 2.070261 1.073867
H -0.776060 -1.954613 -1.172045
H -0.859861 0.046175 2.161526
H -0.766043 0.033604 -2.404719
H -0.807658 -1.886209 1.106842
