30
Frame 0, Iteration: 100
C 0.044035 -1.296221 -0.839762
O 1.222626 -1.988815 -1.283468
O 1.240340 0.026272 2.318460
O 1.186509 0.110703 -2.412872
O 1.286023 -1.998560 1.109186
C -0.019886 0.062407 -1.608559
C 0.031911 0.037225 1.515044
C 0.037997 -1.309000 0.723000
O 1.199455 2.136984 -1.223509
O 1.186627 2.108887 1.198347
C -0.014239 1.408858 -0.816980
C -0.017760 1.395871 0.744652
C 2.441852 -1.262211 -0.843742
H 3.280063 -1.871610 -1.162656
H 3.258245 0.185650 2.187895
H 3.220069 0.182305 -2.346258
H 3.377814 -1.760271 1.045154
C 2.430351 0.112844 -1.606425
C 2.428607 0.087257 1.492577
C 2.469881 -1.239692 0.721653
H 3.249787 2.100848 -1.183389
H 3.271699 2.040055 1.019174
C 2.436721 1.459475 -0.819702
C 2.392935 1.474169 0.714127
H -0.713760 -2.001139 -1.180888
H -0.790841 0.088812 2.227467
H -0.857264 -0.016322 -2.305890
H -0.834139 -1.894121 1.026180
H -0.809076 2.003956 -1.264337
H -0.778672 2.101047 1.089818
