2
Frame 0, Iteration: 100
H 1.008721 0.094421 0.079265
H 1.737014 0.070989 -0.000016
