30
Frame 0, Iteration: 100
C 0.044032 -1.296221 -0.839762
O 1.222626 -1.988814 -1.283469
O 1.240339 0.026267 2.318459
O 1.186508 0.110703 -2.412872
O 1.286021 -1.999335 1.109127
C -0.019897 0.062406 -1.608559
C 0.031933 0.037225 1.515044
C 0.037997 -1.309000 0.723000
O 1.199460 2.136973 -1.223503
O 1.186627 2.108888 1.198347
C -0.014237 1.408858 -0.816981
C -0.017758 1.395871 0.744652
C 2.441852 -1.262214 -0.843737
H 3.280063 -1.871608 -1.162661
H 3.258231 0.185645 2.187895
H 3.220068 0.182305 -2.346257
H 3.377924 -1.760171 1.045076
C 2.430351 0.112845 -1.606424
C 2.428584 0.087237 1.492584
C 2.469820 -1.239825 0.721689
H 3.249787 2.100849 -1.183390
H 3.271699 2.040052 1.019175
C 2.436722 1.459474 -0.819702
C 2.392934 1.474167 0.714127
H -0.713760 -2.001141 -1.180891
H -0.790825 0.088813 2.227462
H -0.857279 -0.016302 -2.305886
H -0.834319 -1.893919 1.026058
H -0.808945 2.004039 -1.264339
H -0.778671 2.101042 1.089827
