43
Frame 0, Iteration: 100
C -2.383564 0.023867 -1.590254
C -2.446865 -0.026200 1.532157
C -2.382159 1.347945 -0.781829
C -2.435151 1.347976 0.807379
C -2.338770 -1.361444 0.743745
C -2.391979 -1.364362 -0.832038
O -1.181308 -2.099135 -1.193018
O -1.201173 -0.060097 2.378688
O -1.190862 2.088757 -1.184925
O -1.182914 -0.005378 -2.374770
O -1.163930 -2.088655 1.212322
O -1.207368 2.043366 1.233258
H -3.202029 -1.994389 -1.202625
H -3.183065 -0.047944 2.340608
H -3.150001 2.026290 -1.151555
H -3.223474 0.108093 -2.281650
H -3.170502 -1.968026 1.096878
H -3.264148 1.966266 1.163583
C -0.026098 0.009946 -1.545027
C 0.012065 -0.009974 1.545013
C -0.017468 1.342971 -0.763014
C -0.004973 1.331998 0.780999
C 0.042195 -1.342922 0.763039
C 0.005499 -1.331997 -0.780998
O 1.227987 -2.070174 -1.192609
O 1.183031 0.022778 2.392009
O 1.153736 2.068983 -1.182783
O 1.128699 0.033475 -2.414689
O 1.192621 -2.097300 1.149579
O 1.179758 2.129312 1.211618
C 2.389624 0.034933 -1.588678
C 2.415148 -0.012807 1.612789
C 2.412308 1.391130 -0.763317
C 2.414992 1.378490 0.799652
C 2.399725 -1.376876 0.817591
C 2.425446 -1.329671 -0.793266
H 3.246671 -1.986346 -1.086468
H 3.193599 -0.040841 2.378738
H 3.261850 1.984377 -1.116749
H 3.182303 0.096087 -2.336280
H 3.184314 -2.043565 1.181563
H 3.285868 1.975898 1.096059
Ne 11.986328 -0.028886 1.543347
