7
Frame 0, Iteration: 100
C 0.212000 0.048000 -0.018978
H 0.772826 0.789887 0.559954
H -0.398274 0.612683 -0.719438
H -0.438500 -0.526542 0.644361
H 0.943303 -0.534939 -0.582969
Ne 0.211999 18.048001 -0.000004
Ne -0.000002 -0.000003 -17.999993
