60
Frame 0, Iteration: 100
C -0.553221 0.476404 -1.570887
C -0.614293 0.454487 1.533731
C -0.565221 1.802337 -0.781021
C -0.614367 1.813027 0.795719
C -0.507192 -0.880817 0.760703
C -0.549614 -0.894165 -0.805141
O 0.665833 -1.614952 -1.164016
O 0.621098 0.437344 2.373178
O 0.621371 2.542529 -1.185721
O 0.650469 0.453484 -2.346488
O 0.673035 -1.586610 1.233091
O 0.599902 2.516985 1.216132
H -1.349788 -1.535673 -1.176346
H -1.353368 0.432406 2.339232
H -1.335166 2.473502 -1.158447
H -1.389512 0.549075 -2.267883
H -1.329936 -1.495516 1.117134
H -1.448609 2.426777 1.146915
C 1.859990 0.484997 -1.552004
C 1.851007 0.489004 1.572002
C 1.841997 1.838999 -0.771999
C 1.837993 1.840998 0.788986
C 1.868016 -0.863998 0.791999
C 1.873000 -0.865990 -0.768995
H 2.754035 -1.447113 -1.064929
H 2.696546 0.568992 2.254288
H 2.665262 2.445540 -1.152843
H 2.591263 0.513350 -2.360379
H 2.719591 -1.489404 1.063772
H 2.606635 2.549991 1.117881
O 0.673758 -7.646488 -2.090309
O 0.655630 -7.685729 2.092968
H -1.371514 -5.273203 -1.997616
H -1.382309 -8.786137 -0.058737
H -1.374781 -5.427914 2.076494
H -1.367357 -4.164570 -0.031731
H -1.304242 -7.670356 -1.961460
H -1.399138 -7.661178 1.945591
C 1.854226 -4.902361 0.032683
C 1.822865 -7.996824 0.002676
C 1.817734 -5.699899 1.381798
C 1.890982 -7.236990 1.362682
C 1.863730 -7.253697 -1.344912
C 1.856833 -5.659951 -1.341785
H 2.610767 -5.246881 -2.010298
H 2.609965 -8.746647 0.006598
H 2.620732 -5.300959 2.002383
H 2.666880 -4.176410 0.128797
H 2.737596 -7.654180 -1.860272
H 2.699071 -7.604823 1.997838
C -0.615708 -4.952035 -0.007447
C -0.587040 -8.035362 -0.026285
C -0.578076 -5.733907 1.398058
C -0.565212 -7.284228 1.350370
C -0.512168 -7.221101 -1.372382
C -0.576657 -5.672196 -1.366128
O 0.622788 -5.259868 -2.069526
O 0.646124 -8.866139 -0.039874
O 0.584386 -5.261945 2.049944
O 0.563175 -4.126145 0.019783
