10
Frame 0, Iteration: 100
C -1.456430 -0.265217 -0.004251
H -0.867359 0.465983 0.560940
H -2.079062 0.308779 -0.685100
H -2.106071 -0.828243 0.671071
H -0.756442 -0.863725 -0.590784
C 2.388918 -0.420634 -0.000355
H 2.977119 0.167906 0.700575
H 1.781320 0.131497 -0.719014
H 1.719994 -1.011948 0.615681
H 3.052350 -1.130418 -0.485955
