43
Frame 0, Iteration: 100
C -2.384962 0.021450 -1.587714
C -2.439633 -0.024951 1.537381
C -2.384059 1.349811 -0.781586
C -2.430603 1.348434 0.805865
C -2.345598 -1.363050 0.748343
C -2.392139 -1.364765 -0.827373
O -1.179450 -2.095589 -1.191319
O -1.201480 -0.059569 2.381055
O -1.190507 2.088249 -1.184084
O -1.184116 -0.005972 -2.375808
O -1.164064 -2.087843 1.212080
O -1.204584 2.040204 1.229466
H -3.200887 -1.994436 -1.201364
H -3.180374 -0.045858 2.342230
H -3.151553 2.028284 -1.151480
H -3.224315 0.106462 -2.280208
H -3.176119 -1.970515 1.100067
H -3.260530 1.965177 1.162757
C -0.025995 0.004397 -1.550316
C 0.011799 -0.005944 1.555565
C -0.017543 1.335517 -0.761019
C -0.004978 1.317252 0.748429
C 0.042245 -1.328996 0.772595
C 0.005280 -1.306126 -0.776926
O 1.225861 -2.067097 -1.191199
O 1.184184 0.023455 2.393661
O 1.153081 2.068316 -1.181954
O 1.129562 0.032922 -2.415806
O 1.192327 -2.096109 1.149027
O 1.177362 2.126090 1.208053
C 2.389758 0.032445 -1.586389
C 2.411804 -0.011522 1.607409
C 2.409394 1.388667 -0.764735
C 2.412170 1.377220 0.799430
C 2.399226 -1.374953 0.812221
C 2.422618 -1.332832 -0.793270
H 3.245266 -1.988252 -1.086030
H 3.190747 -0.040458 2.373812
H 3.259657 1.982401 -1.116895
H 3.181987 0.095269 -2.334458
H 3.183424 -2.041245 1.179302
H 3.283929 1.974775 1.095951
Ne 11.986328 -0.028886 1.543347
