15
Frame 0, Iteration: 100
C -1.274974 -0.042467 0.073596
X -1.809107 0.100636 -0.526768
X -1.646466 -0.191356 0.731741
C -0.296841 1.146629 0.291319
X -0.389057 1.704951 -0.229951
X -0.364063 1.433262 0.987846
C 1.153224 0.594211 0.072609
X 1.578055 0.665914 0.697515
X 1.486865 0.992632 -0.509217
C -0.430555 -1.329683 -0.234425
X -0.630806 -1.582311 -0.921266
X -0.563640 -1.892535 0.287140
C 1.077732 -0.906622 -0.267507
X 1.461684 -1.309237 0.295007
X 1.393477 -1.006317 -0.974502
