15
Frame 0, Iteration: 100
C -1.277377 -0.027518 0.020696
X -1.793837 0.010245 -0.611728
X -1.669360 -0.053900 0.680029
C -0.301841 1.181565 0.045363
X -0.376612 1.634838 -0.574913
X -0.389960 1.596738 0.672107
C 1.152635 0.599297 -0.027484
X 1.558846 0.790716 0.581081
X 1.504138 0.884844 -0.660695
C -0.426850 -1.355326 -0.019855
X -0.606604 -1.733053 -0.652325
X -0.576883 -1.812349 0.591345
C 1.082959 -0.938004 -0.081154
X 1.449051 -1.236214 0.556985
X 1.418887 -1.163171 -0.745006
