30
Frame 0, Iteration: 100
H -0.951334 -1.968554 -1.225398
H -1.102615 -0.020359 2.116776
H -1.022704 -0.039133 -2.344745
H -0.976550 -1.942086 1.133490
H -1.014759 2.027777 1.118215
H -1.070668 1.967437 -1.213929
C -0.177289 -1.319625 -0.815682
O 1.055620 -2.021405 -1.232851
O 1.028487 0.047416 2.340893
O 0.978089 0.074269 -2.398503
O 1.067036 -1.997121 1.157279
C -0.237701 0.036251 -1.586512
C -0.179228 0.018430 1.535987
C -0.162521 -1.328052 0.745786
O 0.953144 2.146545 -1.221097
O 0.929187 2.144280 1.181993
C -0.217559 1.376713 0.761834
C -0.246509 1.385234 -0.799419
C 2.147273 1.447867 0.736188
C 2.157889 1.466487 -0.814205
C 2.238407 -1.225929 -0.830453
C 2.198932 0.107752 -1.632683
C 2.271305 0.111678 1.518613
C 2.265427 -1.217324 0.744304
H 3.029958 2.069321 -1.124656
H 2.916890 2.162317 1.036827
H 3.077386 -1.871335 1.064852
H 3.032599 -1.858180 -1.245198
H 3.143111 0.097593 2.181882
H 2.965342 0.272689 -2.410406
