15
Frame 0, Iteration: 100
C -1.277368 -0.027307 0.020703
X -1.793835 0.010268 -0.611728
X -1.669357 -0.053878 0.680030
C -0.301636 1.181615 0.045357
X -0.376591 1.634846 -0.574913
X -0.389938 1.596746 0.672105
C 1.152748 0.599121 -0.027495
X 1.558860 0.790696 0.581080
X 1.504151 0.884824 -0.660697
C -0.427046 -1.355250 -0.019844
X -0.606625 -1.733045 -0.652324
X -0.576905 -1.812341 0.591346
C 1.082827 -0.938171 -0.081154
X 1.449036 -1.236231 0.556985
X 1.418872 -1.163187 -0.745007
