15
Frame 0, Iteration: 100
C -1.277372 -0.027411 0.020700
X -1.793836 0.010257 -0.611728
X -1.669359 -0.053889 0.680030
C -0.301737 1.181590 0.045360
X -0.376601 1.634842 -0.574913
X -0.389949 1.596742 0.672106
C 1.152693 0.599208 -0.027490
X 1.558853 0.790706 0.581080
X 1.504145 0.884833 -0.660696
C -0.426950 -1.355287 -0.019850
X -0.606615 -1.733049 -0.652324
X -0.576894 -1.812345 0.591345
C 1.082892 -0.938089 -0.081154
X 1.449043 -1.236223 0.556985
X 1.418879 -1.163179 -0.745007
