65
Frame 0, Iteration: 100
C -1.265492 1.218399 -1.748554
N -1.454196 0.712743 -3.171662
C -2.582872 -0.804990 -1.021370
N -2.661018 1.471296 -3.463455
C -2.567580 0.701090 -1.032064
C -2.584416 -1.241819 0.392650
C -3.926145 1.175669 -1.704218
N -3.831200 0.662682 -3.118244
C -2.598061 1.173641 0.396267
C -5.225390 -0.855552 -1.011698
C -2.581922 -0.029799 1.290181
C -1.287841 -1.311509 -1.693055
C -5.239891 0.705772 -1.049786
N -1.378644 -2.769650 -1.625337
C -5.189214 -1.270929 0.444796
C -5.243195 1.229548 0.408295
C -5.173764 -0.001269 1.294711
C -3.908684 -1.326827 -1.702560
N -3.799173 -2.804770 -1.688242
C -3.880252 -2.062948 0.694022
C -3.926001 1.993866 0.666108
C -3.896580 -0.039186 2.096051
N -3.765912 2.429501 2.077116
N -3.819820 3.196431 -0.237636
N -3.735858 -2.488186 2.124089
N -3.821119 2.700928 -1.709831
N -3.823746 -0.861958 -3.103562
N -3.843892 1.195936 2.957805
N -3.770188 -3.259987 -0.228840
N -3.767617 -1.195850 2.992340
C -1.268918 -2.040139 0.661896
C -1.269348 1.990549 0.682535
C -1.246614 -0.005126 2.150224
N -1.380957 2.438063 2.066176
N -1.411041 3.152396 -0.209466
N -1.358764 -2.450696 2.080737
N -1.403978 2.668174 -1.679128
N -1.426301 -0.825267 -3.098083
N -1.366062 1.206263 2.978293
N -1.397554 -3.208062 -0.199947
N -1.377965 -1.237251 3.002070
N -2.536967 -2.870421 -2.515294
N -2.562257 -3.326033 1.949205
N -2.604066 3.762810 0.374503
N -2.620584 0.810597 3.703586
N -2.642474 2.779323 -2.538520
N -2.590279 -1.575759 -3.462335
N -2.558886 -3.814024 0.446719
N -2.582257 3.239831 1.938879
N -2.575811 -0.819830 3.750906
H -6.067873 -1.304683 -1.544593
H -6.126688 1.074332 -1.572712
H -5.948356 -1.962046 0.807760
H -6.108667 1.865667 0.630391
H -5.987231 0.077788 2.018434
C 0.012680 1.241282 0.391270
H 0.870196 1.898436 0.551841
C 0.030327 -0.021869 1.272836
H 0.917999 0.043897 1.900778
C -0.007287 -1.295100 0.409923
H 0.841398 -1.966034 0.557352
C -0.007066 -0.797207 -1.025874
H 0.915598 -1.162004 -1.479744
C 0.015212 0.719683 -1.028686
H 0.929808 1.065531 -1.514542
