2
Frame 0, Iteration: 100
H 1.737051 0.071016 0.000022
H 1.003067 0.009395 -0.056669
