30
Frame 0, Iteration: 100
H -0.724386 -1.921278 -1.249285
H -0.892531 -0.000682 2.092576
H -0.794356 -0.005850 -2.360952
H -0.791379 -1.915413 1.099489
C 0.062774 -1.295883 -0.839818
O 1.258012 -1.988657 -1.266717
O 1.229922 0.023551 2.340821
O 1.204797 0.073179 -2.445064
O 1.250800 -1.996240 1.118790
C -0.003418 0.062703 -1.608609
C 0.031150 0.037211 1.515046
C 0.037849 -1.309680 0.722705
O 1.200768 2.134041 -1.232525
O 1.180808 2.118617 1.209046
C -0.007710 1.408975 -0.817000
C -0.026073 1.395721 0.744677
C 2.467814 -1.241158 -0.859007
H 3.265451 -1.869305 -1.248548
H 3.277355 0.122718 2.229596
H 3.288624 0.125913 -2.310116
H 3.288830 -1.824853 1.083404
C 2.432577 0.098259 -1.638596
C 2.468577 0.096695 1.508148
C 2.452625 -1.223175 0.714928
H 3.264510 2.025321 -1.139382
H 3.197888 2.086379 1.030583
C 2.392702 1.426395 -0.827296
C 2.361039 1.462734 0.705494
H -0.802866 2.000029 -1.267915
H -0.787487 2.100698 1.091215
