23
Frame 0, Iteration: 100
C -4.037407 -0.049709 -0.020529
H -3.414685 0.693545 0.496616
H -4.615364 0.527261 -0.737759
H -3.393609 -0.672723 -0.641541
N -4.859096 -0.919234 0.854547
H -4.283542 -1.590945 1.356184
H -5.474255 -0.445435 1.511972
C 0.509511 5.192406 -0.000800
H -0.103246 5.847127 -0.625816
H -0.059101 4.582888 0.702119
H 1.207359 4.573491 -0.566755
O 1.348626 6.061519 0.850480
H 1.922453 6.601782 0.279543
C 5.906437 -0.159000 0.000000
H 6.559704 0.504530 0.566521
H 5.251552 0.501612 -0.574906
H 5.302412 -0.760262 0.685528
H 6.509814 -0.803912 -0.637685
C 1.261036 -5.717664 -0.014008
Cl 2.321999 -4.669999 1.034002
Cl 0.237700 -6.735291 1.045850
Cl 2.312766 -6.752830 -1.068915
Cl 0.278255 -4.655349 -1.027984
