10
Frame 0, Iteration: 100
C -0.246632 -0.002954 -0.004834
H 0.308686 0.740884 0.578264
H -0.863595 0.556869 -0.702457
H -0.903214 -0.576645 0.654979
H 0.479052 -0.589608 -0.572437
C 9.794290 0.128987 -0.000927
H 10.390293 0.729221 0.684772
H 9.156036 0.670648 -0.702368
H 9.152798 -0.473573 0.633263
H 10.456116 -0.570097 -0.505436
