200
Frame 0, Iteration: 100
C 0.163790 2.332279 -0.016352
H -0.005811 2.969491 0.854886
H 0.152276 2.856988 -0.969971
O 1.371838 1.556438 0.026228
C 2.630301 2.375341 -0.001355
H 2.659834 2.992251 0.897453
H 2.641379 2.965761 -0.920318
O 3.731479 1.428321 -0.020365
C 5.029287 2.139871 0.026581
H 5.125282 2.627069 0.997993
H 5.167294 2.789763 -0.841492
O 6.034714 1.072235 0.009395
C 7.417005 1.618324 0.018162
H 7.576735 2.097817 0.987735
H 7.626128 2.253956 -0.846196
O 8.273578 0.470504 -0.002520
C 9.737950 0.797525 -0.007193
H 10.001498 1.315939 0.916576
H 9.940533 1.308498 -0.951412
O 10.448579 -0.492778 0.014150
C 11.899654 -0.345228 0.014226
H 12.233464 0.128017 0.939955
H 12.313147 0.190258 -0.839938
O 12.453665 -1.666395 0.002719
C 13.943052 -1.725446 0.028573
H 14.352689 -1.189790 0.888987
H 14.266329 -1.323675 -0.928584
O 14.252190 -3.132715 -0.020059
C 15.748762 -3.349551 -0.024139
H 16.174077 -2.834594 0.840470
H 16.186191 -2.950206 -0.941736
O 15.974126 -4.808237 0.036179
C 17.381935 -5.177517 0.033989
H 17.877121 -4.826712 0.938598
H 17.889007 -4.825608 -0.864914
O 17.393218 -6.630058 -0.018792
C 18.739928 -7.239901 0.039443
H 19.169282 -6.989246 1.007782
H 19.347591 -6.946360 -0.817335
O 18.531164 -8.652364 -0.003214
C 19.822569 -9.417125 0.024768
H 20.495088 -9.142390 0.841971
H 20.340142 -9.243119 -0.914191
O 19.479837 -10.816868 -0.000839
C 20.618037 -11.694832 -0.002168
H 21.126287 -11.547415 0.944937
H 21.251693 -11.498521 -0.867098
O 20.135667 -13.076269 0.040413
C 21.183607 -14.126979 0.048236
H 21.789333 -14.062449 0.957132
H 21.718466 -14.104160 -0.900927
O 20.444763 -15.389250 -0.000182
C 21.427320 -16.545274 0.067652
H 22.023857 -16.553739 0.985806
H 22.094510 -16.441308 -0.798591
O 20.533715 -17.710342 -0.008215
C 21.270123 -18.982799 -0.014829
H 21.928562 -19.082597 0.848813
H 21.802330 -18.988861 -0.966227
O 20.258108 -20.094906 -0.001673
C 20.897315 -21.427536 0.005983
H 21.356328 -21.519447 0.985777
H 21.608018 -21.553731 -0.815488
O 19.791202 -22.369700 0.024484
C 20.193895 -23.762471 0.050595
H 20.725370 -23.954484 0.988290
H 20.798940 -23.902347 -0.842933
O 18.949917 -24.523506 -0.024919
C 19.241290 -25.973344 0.023096
H 19.714790 -26.155709 0.988784
H 19.863889 -26.236348 -0.836772
O 17.883069 -26.633290 0.004516
C 18.004001 -28.116357 0.053059
H 18.407646 -28.389888 1.032236
H 18.567897 -28.500453 -0.801686
O 16.612185 -28.509624 -0.029909
C 16.440435 -29.989204 0.057654
H 16.911099 -30.319011 0.987697
H 16.931604 -30.321089 -0.851875
O 15.037567 -30.360505 -0.039992
C 14.746897 -31.784601 0.048871
H 15.115137 -32.229489 0.984592
H 15.159939 -32.254819 -0.844279
O 13.248836 -31.866335 0.045446
C 12.826783 -33.259224 0.030310
H 13.159698 -33.786349 0.925505
H 13.164139 -33.788016 -0.861603
O 11.348311 -33.172039 0.022631
C 10.690886 -34.501066 -0.001695
H 10.959303 -35.018701 0.917686
H 10.962647 -35.130682 -0.857655
O 9.240086 -34.211564 -0.015830
C 8.457826 -35.439257 -0.005610
H 8.715891 -35.945466 0.923750
H 8.697432 -35.984028 -0.922603
O 7.060719 -34.991653 -0.002429
C 6.087919 -36.107922 0.014406
H 6.215077 -36.493338 1.022164
H 6.268775 -36.812974 -0.800604
O 4.764408 -35.540620 -0.026206
C 3.679583 -36.504415 0.046163
H 3.690786 -37.108432 0.959754
H 3.653000 -37.074191 -0.882266
O 2.402632 -35.699163 0.003099
C 1.195758 -36.548514 -0.011659
H 1.257090 -37.187012 0.869964
H 1.169506 -37.086506 -0.960618
O 0.071285 -35.624046 0.008161
C -1.216147 -36.330514 0.026464
H -1.295113 -37.014547 0.876175
H -1.251413 -36.861145 -0.923675
O -2.249812 -35.254536 0.053444
C -3.615930 -35.754986 -0.006046
H -3.816845 -36.392435 0.854639
H -3.822563 -36.276179 -0.939804
O -4.505190 -34.568185 0.025055
C -5.869876 -34.912480 0.014626
H -6.045486 -35.449346 0.942507
H -6.051299 -35.471086 -0.899852
O -6.590418 -33.672098 0.016722
C -8.090221 -33.814165 0.009163
H -8.460003 -34.339759 0.891793
H -8.447705 -34.285104 -0.907493
O -8.593544 -32.447049 0.036228
C -10.075320 -32.425855 -0.016362
H -10.511676 -32.892046 0.866862
H -10.416654 -32.835635 -0.969031
O -10.484611 -31.016451 0.022609
C -11.916847 -30.855713 0.003989
H -12.373827 -31.229747 0.930603
H -12.330664 -31.283725 -0.912838
O -12.091253 -29.351294 -0.007111
C -13.501089 -28.980232 0.015513
H -13.933671 -29.449967 0.901339
H -13.883420 -29.337387 -0.937486
O -13.505610 -27.525579 -0.028940
C -14.886786 -26.946447 0.023462
H -15.416209 -27.218551 0.939676
H -15.436208 -27.263992 -0.860389
O -14.744509 -25.513552 -0.067613
C -16.013638 -24.766865 0.044089
H -16.575071 -25.107164 0.922080
H -16.543605 -24.924536 -0.891782
O -15.657642 -23.324997 -0.019837
C -16.805493 -22.416976 0.049512
H -17.264755 -22.540603 1.031640
H -17.461954 -22.636470 -0.789968
O -16.311130 -21.065476 -0.034727
C -17.349082 -20.087579 0.011199
H -17.878440 -20.166680 0.969491
H -17.935325 -20.179876 -0.906785
O -16.643597 -18.796628 0.007505
C -17.578189 -17.595498 0.017037
H -18.188452 -17.533144 0.921098
H -18.201099 -17.590580 -0.883171
O -16.745811 -16.414439 0.041559
C -17.479600 -15.201608 -0.020733
H -17.958704 -15.181592 0.955048
H -18.110561 -15.250598 -0.919578
O -16.470742 -14.086746 0.028558
C -17.074855 -12.732796 0.047930
H -17.654793 -12.588239 0.961713
H -17.617332 -12.568913 -0.882112
O -15.953932 -11.777940 0.008912
C -16.386114 -10.411200 0.051322
H -17.044540 -10.160373 0.884254
H -16.943881 -10.289178 -0.872749
O -15.164952 -9.563588 0.042543
C -15.447461 -8.189783 0.007801
H -15.928475 -7.960055 0.955192
H -16.071563 -7.954749 -0.860359
O -14.061024 -7.507642 0.027901
C -14.153323 -6.047577 0.027849
H -14.650696 -5.850468 0.977813
H -14.687200 -5.757129 -0.880048
O -12.732215 -5.629562 0.031700
C -12.633886 -4.106102 -0.023553
H -13.037797 -3.682968 0.889991
H -13.126295 -3.649849 -0.886996
O -11.273289 -3.817672 0.017642
C -10.910450 -2.406140 -0.019715
H -11.269115 -1.928875 0.898307
H -11.252371 -1.999425 -0.973064
O -9.469608 -2.297391 0.008918
C -8.966223 -0.902014 -0.018279
H -9.254760 -0.507635 0.955960
H -9.346114 -0.300852 -0.856996
O -7.560132 -0.993128 0.001037
C -6.839673 0.377137 0.014377
H -7.119212 0.847100 0.958517
H -7.095837 1.053606 -0.814749
O -5.410156 0.079448 -0.007678
C -4.601298 1.239977 0.015085
H -4.860703 1.731764 0.958532
H -4.782503 1.871009 -0.851918
O -3.223740 0.818591 0.021350
C -2.271631 1.976966 -0.002281
H -2.429436 2.569227 0.903342
H -2.402630 2.565489 -0.919391
O -0.902535 1.346912 0.014847
