200
Frame 0, Iteration: 100
C 0.163859 2.325743 -0.016351
H -0.001979 2.966533 0.853120
H 0.151830 2.854038 -0.968238
O 1.372229 1.562947 0.026381
C 2.629954 2.369557 -0.001374
H 2.660982 2.989144 0.895574
H 2.642091 2.962783 -0.918607
O 3.732013 1.433860 -0.020342
C 5.028282 2.133888 0.026541
H 5.123931 2.624916 0.996305
H 5.165870 2.786410 -0.839829
O 6.036165 1.078078 0.009417
C 7.414969 1.612462 0.018195
H 7.575570 2.095779 0.986052
H 7.624107 2.250703 -0.844633
O 8.276068 0.476291 -0.002467
C 9.735435 0.791866 -0.007197
H 9.999608 1.313784 0.914561
H 9.940419 1.305549 -0.949652
O 10.451310 -0.487584 0.014139
C 11.896562 -0.350392 0.014182
H 12.230640 0.126449 0.937991
H 12.308880 0.188899 -0.838480
O 12.457429 -1.661006 0.002957
C 13.938995 -1.730456 0.028161
H 14.351352 -1.194180 0.887299
H 14.265485 -1.325613 -0.926774
O 14.256260 -3.129050 -0.019947
C 15.744493 -3.353194 -0.024075
H 16.172842 -2.837595 0.838903
H 16.183875 -2.952217 -0.940317
O 15.978530 -4.803940 0.036295
C 17.376778 -5.181547 0.033807
H 17.874067 -4.828486 0.936692
H 17.885365 -4.826135 -0.863038
O 17.398818 -6.626589 -0.018636
C 18.734505 -7.242889 0.039237
H 19.167273 -6.991049 1.005955
H 19.344368 -6.947517 -0.815637
O 18.536460 -8.650268 -0.002986
C 19.817079 -9.419146 0.024425
H 20.491190 -9.143763 0.840544
H 20.337710 -9.242868 -0.912612
O 19.485314 -10.815035 -0.000697
C 20.612463 -11.696506 -0.002035
H 21.124209 -11.547302 0.942966
H 21.248403 -11.500083 -0.865512
O 20.142081 -13.074522 0.040458
C 21.177365 -14.128494 0.047948
H 21.785826 -14.063282 0.955315
H 21.716077 -14.103028 -0.899220
O 20.450421 -15.388701 0.000205
C 21.420658 -16.544811 0.067144
H 22.019775 -16.553432 0.984159
H 22.091363 -16.443837 -0.797276
O 20.539892 -17.711186 -0.007958
C 21.264679 -18.982332 -0.014943
H 21.925391 -19.081324 0.847106
H 21.799976 -18.990157 -0.964765
O 20.263865 -20.095459 -0.001731
C 20.891091 -21.425736 0.006188
H 21.354605 -21.518953 0.983950
H 21.603426 -21.553810 -0.813991
O 19.797507 -22.371677 0.024584
C 20.188226 -23.760489 0.050308
H 20.721858 -23.954704 0.986420
H 20.795572 -23.903830 -0.841307
O 18.955025 -24.525726 -0.024837
C 19.236075 -25.970460 0.023032
H 19.712181 -26.155645 0.987100
H 19.860040 -26.236218 -0.835253
O 17.888771 -26.636192 0.004677
C 17.998391 -28.112081 0.052741
H 18.404703 -28.388620 1.030498
H 18.564721 -28.498110 -0.800045
O 16.615946 -28.514156 -0.029615
C 16.437267 -29.985419 0.057128
H 16.907490 -30.318880 0.986011
H 16.929275 -30.321974 -0.850131
O 15.042481 -30.364543 -0.039620
C 14.742187 -31.780224 0.048533
H 15.113809 -32.226328 0.982869
H 15.157005 -32.253271 -0.842590
O 13.252607 -31.870681 0.045555
C 12.823115 -33.253966 0.030277
H 13.158500 -33.783001 0.923782
H 13.163217 -33.784280 -0.860022
O 11.351475 -33.177742 0.022614
C 10.687945 -34.495674 -0.001647
H 10.957286 -35.016479 0.915918
H 10.962164 -35.126669 -0.856311
O 9.242480 -34.216904 -0.015808
C 8.456057 -35.433157 -0.005644
H 8.712993 -35.943628 0.921926
H 8.694920 -35.981624 -0.920807
O 7.062022 -34.997562 -0.002439
C 6.087110 -36.102148 0.014464
H 6.213330 -36.492465 1.020547
H 6.267461 -36.809377 -0.799066
O 4.765508 -35.546797 -0.026044
C 3.678281 -36.498217 0.045769
H 3.692188 -37.104828 0.958044
H 3.654862 -37.071953 -0.880581
O 2.402977 -35.705123 0.003266
C 1.196224 -36.542390 -0.011730
H 1.254333 -37.183734 0.868186
H 1.169427 -37.083785 -0.958888
O 0.070659 -35.629926 0.008382
C -1.214941 -36.324422 0.026266
H -1.294868 -37.010573 0.874451
H -1.252906 -36.858521 -0.922115
O -2.251233 -35.260597 0.053485
C -3.614560 -35.749179 -0.005982
H -3.815651 -36.389397 0.852670
H -3.819742 -36.273956 -0.938258
O -4.506737 -34.573773 0.025091
C -5.867319 -34.906982 0.014614
H -6.045944 -35.446354 0.940615
H -6.051560 -35.467757 -0.898139
O -6.593592 -33.677937 0.016743
C -8.087220 -33.808521 0.009134
H -8.457328 -34.337394 0.889866
H -8.445006 -34.282994 -0.905855
O -8.596972 -32.451408 0.036290
C -10.072021 -32.421445 -0.016290
H -10.508452 -32.891186 0.865107
H -10.414232 -32.834241 -0.967547
O -10.488200 -31.021445 0.022628
C -11.912633 -30.850543 0.003985
H -12.370506 -31.228741 0.928949
H -12.327998 -31.281554 -0.911170
O -12.095826 -29.355327 -0.007039
C -13.495781 -28.976796 0.015138
H -13.933235 -29.444864 0.899785
H -13.882771 -29.335054 -0.935761
O -13.510864 -27.528651 -0.028567
C -14.881566 -26.943641 0.023065
H -15.412865 -27.217498 0.938035
H -15.433525 -27.263274 -0.858631
O -14.750032 -25.516263 -0.067296
C -16.007762 -24.764433 0.043437
H -16.572269 -25.103202 0.920603
H -16.541552 -24.924866 -0.889978
O -15.663370 -23.326811 -0.019343
C -16.800027 -22.415572 0.049249
H -17.262535 -22.539840 1.030021
H -17.459278 -22.634689 -0.788226
O -16.316760 -21.067193 -0.034611
C -17.342751 -20.086263 0.011062
H -17.875574 -20.166924 0.967713
H -17.932387 -20.179111 -0.905043
O -16.649781 -18.796807 0.007620
C -17.572235 -17.595374 0.017014
H -18.185572 -17.535771 0.919487
H -18.197957 -17.590825 -0.881637
O -16.751641 -16.414430 0.041465
C -17.473555 -15.202039 -0.020331
H -17.957509 -15.180621 0.953089
H -18.106766 -15.247678 -0.918269
O -16.476781 -14.085893 0.028457
C -17.068835 -12.733941 0.047676
H -17.651639 -12.589215 0.959848
H -17.615313 -12.570922 -0.880307
O -15.959441 -11.776407 0.009241
C -16.380735 -10.412897 0.051000
H -17.041229 -10.162866 0.882728
H -16.941088 -10.287852 -0.871164
O -15.170796 -9.561961 0.042572
C -15.441429 -8.191960 0.008009
H -15.926400 -7.960903 0.953234
H -16.067171 -7.955150 -0.858791
O -14.066883 -7.504718 0.027746
C -14.147936 -6.051580 0.027839
H -14.646469 -5.848460 0.976249
H -14.683027 -5.756899 -0.878398
O -12.736502 -5.625545 0.031681
C -12.630061 -4.111031 -0.023198
H -13.037098 -3.685792 0.888112
H -13.123773 -3.653351 -0.885410
O -11.277308 -3.812494 0.017530
C -10.906553 -2.410492 -0.019634
H -11.268037 -1.931252 0.896129
H -11.250672 -2.001258 -0.971330
O -9.473264 -2.292759 0.008752
C -8.963218 -0.907588 -0.017931
H -9.252962 -0.508386 0.954223
H -9.343662 -0.304616 -0.855314
O -7.562617 -0.987440 0.000876
C -6.837285 0.371292 0.014400
H -7.116375 0.845516 0.956912
H -7.095519 1.049426 -0.813401
O -5.412365 0.084757 -0.007686
C -4.599432 1.234957 0.015091
H -4.857876 1.730485 0.957101
H -4.782040 1.867752 -0.850370
O -3.225502 0.824139 0.021403
C -2.270225 1.970768 -0.002233
H -2.428044 2.566369 0.901559
H -2.402017 2.562169 -0.917876
O -0.903699 1.353005 0.014776
