350
Frame 0, Iteration: 100
C 0.246006 2.418005 0.237986
O 0.124819 3.186556 -1.051959
O 1.512856 1.632807 0.241523
C 2.706991 2.484996 0.240003
O 2.787194 3.269567 -1.013914
O 3.852184 1.567973 0.221815
C 5.155998 2.243983 0.242007
O 5.278350 2.981968 -1.009337
O 6.177611 1.195748 0.251942
C 7.556999 1.696981 0.244019
O 7.788732 2.453451 -0.972749
O 8.428630 0.504095 0.271332
C 9.869001 0.854998 0.246005
O 10.187139 1.576248 -0.951291
O 10.613258 -0.389938 0.252638
C 12.058009 -0.269992 0.247995
O 12.494831 0.438587 -1.004347
O 12.627515 -1.637810 0.246819
C 14.088995 -1.661003 0.249997
O 14.594661 -1.034591 -0.974146
O 14.476693 -3.075418 0.273757
C 15.928006 -3.295996 0.251987
O 16.539528 -2.734079 -0.978625
O 16.139432 -4.715634 0.264712
C 17.548007 -5.148007 0.254006
O 18.186578 -4.635134 -0.994911
O 17.553220 -6.641329 0.258016
C 18.922982 -7.188982 0.255992
O 19.622782 -6.795925 -1.015824
O 18.776641 -8.601293 0.261349
C 20.031010 -9.386982 0.257996
O 20.790103 -9.091502 -0.948637
O 19.715954 -10.797284 0.283802
C 20.854012 -11.705996 0.259004
O 21.620891 -11.508494 -0.943319
O 20.356265 -13.055752 0.254893
C 21.380007 -14.109015 0.260008
O 22.147607 -14.002062 -0.965939
O 20.720534 -15.411439 0.259778
C 21.600007 -16.559981 0.261002
O 22.392418 -16.563022 -0.962687
O 20.813145 -17.744379 0.253916
C 21.512011 -19.018998 0.260990
O 22.314405 -19.086707 -0.973691
O 20.499319 -20.091849 0.250380
C 21.116988 -21.447994 0.262004
O 21.901889 -21.604823 -0.970032
O 20.020664 -22.400768 0.308291
C 20.422001 -23.808012 0.261012
O 21.182768 -24.088445 -0.956966
O 19.177642 -24.647471 0.240888
C 19.435999 -26.061994 0.261008
O 20.186488 -26.447824 -0.916973
O 18.145150 -26.720239 0.267890
C 18.177003 -28.175988 0.260002
O 18.828651 -28.607052 -0.978344
O 16.774158 -28.650810 0.246267
C 16.661985 -30.115007 0.258988
O 17.238605 -30.621621 -1.002815
O 15.182516 -30.445418 0.266865
C 14.916993 -31.850011 0.258004
O 15.404870 -32.449113 -0.963208
O 13.477228 -31.968720 0.297683
C 12.968996 -33.353001 0.256014
O 13.398580 -34.041258 -0.941303
O 11.480834 -33.280046 0.238184
C 10.847001 -34.599994 0.254995
O 11.170192 -35.289958 -1.001298
O 9.420732 -34.351808 0.267514
C 8.585993 -35.570988 0.253005
O 8.873518 -36.299273 -0.970936
O 7.145330 -35.146999 0.269980
C 6.220999 -36.250007 0.251023
O 6.389757 -37.023021 -0.942055
O 4.906532 -35.676214 0.259585
C 3.788997 -36.627975 0.249003
O 3.816069 -37.409103 -0.942158
O 2.532066 -35.826514 0.240444
C 1.328007 -36.698005 0.246985
O 1.305789 -37.532799 -1.027872
O 0.187651 -35.815759 0.277293
C -1.120996 -36.458016 0.244017
O -1.241050 -37.244817 -0.990246
O -2.178209 -35.419628 0.302721
C -3.520995 -35.912014 0.242007
O -3.732642 -36.699288 -0.999246
O -4.408575 -34.760457 0.277555
C -5.833999 -35.069005 0.240007
O -6.148425 -35.812229 -1.010768
O -6.558986 -33.806712 0.236152
C -8.022993 -33.943017 0.237996
O -8.436137 -34.610733 -1.012648
O -8.577034 -32.601683 0.222744
C -10.053983 -32.550984 0.236007
O -10.529185 -33.139611 -0.989974
O -10.426044 -31.126921 0.255040
C -11.894000 -30.914996 0.234003
O -12.449984 -31.402261 -0.991382
O -12.093219 -29.492211 0.249480
C -13.514989 -29.062021 0.232003
O -14.106654 -29.551294 -0.985218
O -13.566564 -27.621179 0.279355
C -14.891025 -27.020008 0.230989
O -15.587496 -27.389924 -1.012594
O -14.771955 -25.566231 0.222694
C -16.000001 -24.821996 0.228992
O -16.733361 -25.089105 -1.012380
O -15.671290 -23.382459 0.252172
C -16.825996 -22.501999 0.228007
O -17.576282 -22.745532 -1.045535
O -16.290392 -21.122273 0.226185
C -17.355006 -20.096995 0.228009
O -18.135617 -20.208913 -1.028666
O -16.690165 -18.802478 0.196044
C -17.579011 -17.644988 0.226998
O -18.404082 -17.639913 -0.998339
O -16.716765 -16.412873 0.237581
C -17.493976 -15.184003 0.227012
O -18.246271 -15.098590 -1.015773
O -16.484561 -14.108808 0.267389
C -17.101012 -12.752999 0.226993
O -17.885129 -12.577729 -1.050852
O -16.012262 -11.776739 0.259106
C -16.405999 -10.389990 0.227008
O -17.127417 -10.128465 -1.040215
O -15.212340 -9.574123 0.236449
C -15.421002 -8.133996 0.226995
O -16.132810 -7.773374 -0.996571
O -14.093227 -7.538703 0.226690
C -14.160003 -6.018014 0.228007
O -14.812382 -5.591032 -1.030755
O -12.755704 -5.528086 0.244471
C -12.642984 -4.078005 0.229001
O -13.207095 -3.609444 -1.030197
O -11.176017 -3.775028 0.235138
C -10.894991 -2.343999 0.229989
O -11.401080 -1.758146 -1.012823
O -9.462612 -2.227041 0.266557
C -8.943010 -0.843006 0.230998
O -9.398557 -0.231559 -1.063331
O -7.493512 -0.922729 0.280347
C -6.818019 0.399983 0.233000
O -7.165664 1.121534 -1.019866
O -5.382296 0.154117 0.229205
C -4.554000 1.368004 0.234015
O -4.804430 2.115884 -0.964218
O -3.161867 0.932418 0.279267
C -2.186007 2.043998 0.235997
O -2.349179 2.768408 -1.013269
O -0.860106 1.442664 0.313919
H 11.153896 -35.233864 1.086355
H 8.827910 -36.235917 1.086461
H 14.475174 -1.108982 1.106870
H 6.295958 -36.802441 1.187343
H 3.766114 -37.285660 1.118411
H 2.659632 3.106896 1.139951
H 1.323373 -37.443183 1.042292
H -1.129267 -37.125582 1.108855
H 22.040010 -14.120720 1.132954
H -3.645262 -36.508610 1.147193
H -6.090540 -35.609528 1.151301
H 16.388218 -2.828715 1.121828
H -8.290267 -34.472286 1.151791
H -10.434029 -33.013763 1.146143
H 5.273986 2.836033 1.151445
H -12.449790 -31.353920 1.062632
H -13.991462 -29.525957 1.099819
H 22.220936 -16.433462 1.155751
H -15.542973 -27.433218 1.004200
H -16.585760 -25.118077 1.098114
H 18.008821 -4.822787 1.186967
H -17.349408 -22.641888 1.174005
H -17.973402 -20.127906 1.124237
H 7.739679 2.233151 1.175674
H -18.261059 -17.707682 1.074044
H -18.043935 -15.243327 1.167151
H 22.274162 -19.009691 1.041312
H -17.741545 -12.555485 1.085885
H -16.984281 -10.138862 1.120124
H 19.347248 -6.806741 1.184544
H -15.981587 -7.801312 1.099194
H -14.699468 -5.636895 1.105291
H 10.186145 1.474901 1.087223
H -13.146340 -3.641709 1.092206
H -11.305798 -1.734672 1.043100
H 21.704649 -21.593616 1.172540
H -9.273606 -0.321523 1.137298
H -7.207977 0.949179 1.091694
H 20.693461 -9.033550 1.058442
H -4.808977 1.975901 1.104243
H 20.032463 -26.159358 1.169247
H -2.282839 2.746796 1.063997
H 12.476943 0.197242 1.141032
H 18.604553 -28.537393 1.197799
H 21.032275 -24.019073 1.141339
H 17.124848 -30.576406 1.133288
H 0.200429 3.139133 1.053126
H 15.323138 -32.282178 1.171549
H 13.341380 -33.885581 1.134878
H 21.526511 -11.545757 1.107353
C 10.855975 -34.611972 -2.228020
O 9.384096 -34.348576 -2.230087
C 8.592986 -35.582984 -2.229997
O 7.172546 -35.145558 -2.243947
C 6.225012 -36.261009 -2.231990
O 4.890827 -35.686575 -2.279138
C 3.791994 -36.636999 -2.234007
O 2.532986 -35.870893 -2.277372
C 1.331010 -36.704995 -2.236011
O 0.194923 -35.796186 -2.214822
C -1.119000 -36.462999 -2.237998
O -2.150434 -35.420285 -2.290005
C -3.518996 -35.914990 -2.241003
O -4.396499 -34.754596 -2.260457
C -5.830993 -35.070005 -2.243004
O -6.557094 -33.804815 -2.241053
C -8.019005 -33.941999 -2.245002
O -8.580544 -32.578426 -2.264870
C -10.048996 -32.547992 -2.247000
O -10.449363 -31.147602 -2.292263
C -11.887011 -30.912015 -2.248998
O -12.062425 -29.491407 -2.262954
C -13.505990 -29.058010 -2.250998
O -13.557349 -27.599801 -2.231721
C -14.880011 -27.015996 -2.251997
O -14.721412 -25.545368 -2.235850
C -15.987991 -24.817989 -2.253001
O -15.670442 -23.387072 -2.297827
C -16.813010 -22.500008 -2.254008
O -16.302450 -21.145326 -2.287375
C -17.341005 -20.096001 -2.255005
O -16.679749 -18.814095 -2.246954
C -17.563999 -17.645003 -2.256014
O -16.672671 -16.438101 -2.255958
C -17.477973 -15.185996 -2.256011
O -16.506816 -14.095170 -2.281759
C -17.086018 -12.756013 -2.256017
O -15.993072 -11.808113 -2.264505
C -16.391997 -10.395025 -2.256012
O -15.165240 -9.605188 -2.222667
C -15.407012 -8.139999 -2.254988
O -14.112781 -7.482791 -2.265080
C -14.146988 -6.025999 -2.255012
O -12.759572 -5.526965 -2.251652
C -12.631990 -4.086002 -2.254011
O -11.213209 -3.777535 -2.263143
C -10.886006 -2.352003 -2.253006
O -9.426766 -2.221337 -2.227469
C -8.934981 -0.851004 -2.252020
O -7.441674 -0.912781 -2.240508
C -6.812003 0.393007 -2.249991
O -5.366605 0.182303 -2.289692
C -4.549005 1.362024 -2.247988
O -3.151779 0.953972 -2.266674
C -2.183011 2.039004 -2.246999
O -0.883597 1.448877 -2.254641
C 0.247976 2.415993 -2.245006
O 1.495894 1.655928 -2.271811
C 2.709004 2.484015 -2.243007
O 3.847648 1.582015 -2.244746
C 5.159005 2.245008 -2.240998
O 6.184372 1.205274 -2.264685
C 7.560012 1.699998 -2.237991
O 8.450219 0.517362 -2.217248
C 9.873990 0.859012 -2.236006
O 10.594129 -0.406660 -2.287440
C 12.065005 -0.263998 -2.233991
O 12.619336 -1.620585 -2.225290
C 14.097001 -1.654014 -2.232005
O 14.467783 -3.083867 -2.245205
C 15.939002 -3.287994 -2.230004
O 16.150191 -4.718420 -2.259309
C 17.561019 -5.141002 -2.227999
O 17.633083 -6.623132 -2.236609
C 18.937996 -7.183000 -2.227005
O 18.769673 -8.618099 -2.197527
C 20.048006 -9.381008 -2.224990
O 19.710953 -10.792572 -2.249733
C 20.873013 -11.702020 -2.223998
O 20.365645 -13.086378 -2.229830
C 21.401001 -14.107006 -2.223006
O 20.729247 -15.438424 -2.242841
C 21.622002 -16.560006 -2.221998
O 20.778364 -17.776022 -2.267566
C 21.535005 -19.022000 -2.220994
O 20.541847 -20.090887 -2.260058
C 21.140009 -21.452990 -2.221005
O 20.027386 -22.412585 -2.223527
C 20.443009 -23.814994 -2.220997
O 19.227541 -24.591427 -2.260700
C 19.455999 -26.071994 -2.221995
O 18.103582 -26.737907 -2.189267
C 18.195005 -28.186982 -2.221998
O 16.805996 -28.607642 -2.287229
C 16.677979 -30.127979 -2.223011
O 15.223723 -30.417203 -2.206723
C 14.930996 -31.862996 -2.224991
O 13.458979 -31.973429 -2.235609
C 12.980007 -33.366005 -2.226000
O 11.551674 -33.303388 -2.211733
H -8.355066 -34.513017 -3.110885
H -10.441323 -33.167857 -3.058263
H -12.357251 -31.377881 -3.113525
H -13.988495 -29.474127 -3.134269
H -15.412064 -27.381115 -3.130474
H 14.425348 -1.240190 -3.186794
H -16.513112 -25.059951 -3.179675
H -17.479083 -22.684086 -3.096096
H -17.977478 -20.194911 -3.132920
H 0.124232 3.154481 -3.037433
H -18.084559 -17.755798 -3.207974
H 2.770648 3.227848 -3.036875
H -18.039888 -15.130902 -3.191978
H -17.755087 -12.592471 -3.101861
H 7.766481 2.278802 -3.136977
H -17.062367 -10.233636 -3.106142
H 10.049749 1.469406 -3.121158
H -16.051507 -7.782343 -3.062735
H 12.450668 0.340232 -3.058047
H 22.225469 -19.031178 -3.063483
H -14.642672 -5.731692 -3.180261
H 16.448076 -2.812587 -3.069788
H -13.117832 -3.723316 -3.160455
H 18.106586 -4.679905 -3.051072
H -11.220639 -1.884102 -3.178605
H 19.486263 -6.895393 -3.134138
H -9.312324 -0.325925 -3.128062
H 20.687318 -9.258214 -3.099818
H -7.179091 1.009025 -3.070398
H 21.517624 -11.573265 -3.097197
H -4.777674 2.040650 -3.073604
H 21.981194 -13.919213 -3.129856
H -2.397437 2.688653 -3.099508
H 22.272491 -16.569000 -3.097465
H 5.278540 2.954138 -3.058882
H 21.874266 -21.606686 -3.011819
H 21.060221 -23.987969 -3.102599
H 20.031932 -26.310969 -3.115988
H 18.789545 -28.488470 -3.088288
H 17.141521 -30.527107 -3.126086
H 15.301520 -32.409069 -3.093221
H 13.363033 -33.816519 -3.141315
H 11.069927 -35.089461 -3.186073
H 8.788407 -36.184208 -3.120608
H 6.378835 -36.947149 -3.067900
H 3.905154 -37.285292 -3.101725
H 1.315945 -37.280682 -3.160454
H -1.231183 -37.065796 -3.139563
H -3.617632 -36.497971 -3.157460
H -6.088640 -35.624343 -3.151548
