200
Frame 0, Iteration: 100
C 0.187000 1.923004 0.019987
H 0.022985 2.551462 0.901880
H 0.174933 2.455138 -0.931166
O 1.377809 1.144212 0.018409
C 2.583010 1.988985 0.020991
H 2.618877 2.590816 0.930689
H 2.606498 2.569832 -0.902617
O 3.686944 1.021523 -0.021362
C 4.967997 1.754980 0.021005
H 5.063178 2.222039 1.003328
H 5.103400 2.402003 -0.845962
O 5.944410 0.670079 0.000817
C 7.305990 1.223998 0.021003
H 7.459536 1.698747 0.997157
H 7.514221 1.864545 -0.839125
O 8.129486 0.078432 -0.006222
C 9.558003 0.404002 0.020991
H 9.822510 0.918161 0.944923
H 9.767409 0.920902 -0.916041
O 10.261215 -0.865155 0.008202
C 11.690007 -0.690998 0.021005
H 12.023505 -0.227111 0.956617
H 12.106192 -0.156717 -0.836277
O 12.216182 -2.009034 -0.003303
C 13.668003 -2.045001 0.020994
H 14.073847 -1.520830 0.886681
H 14.003868 -1.637710 -0.932944
O 13.976003 -3.444636 -0.024512
C 15.459989 -3.637004 0.019983
H 15.881760 -3.125541 0.888300
H 15.892557 -3.238618 -0.900418
O 15.660178 -5.085158 0.029530
C 17.038016 -5.440996 0.020003
H 17.527749 -5.097667 0.931320
H 17.562060 -5.079186 -0.867201
O 17.048213 -6.867212 -0.024907
C 18.378002 -7.428008 0.021011
H 18.802924 -7.187497 0.995435
H 18.991669 -7.137533 -0.833797
O 18.164660 -8.839358 -0.006423
C 19.457991 -9.568003 0.020992
H 20.117134 -9.300945 0.851176
H 19.978426 -9.391829 -0.920333
O 19.101068 -10.961259 -0.008885
C 20.260987 -11.826993 0.020000
H 20.751668 -11.676253 0.981537
H 20.887321 -11.626730 -0.850496
O 19.735190 -13.168029 0.031112
C 20.774995 -14.168017 0.021005
H 21.369329 -14.114445 0.935432
H 21.317125 -14.154556 -0.925525
O 20.031881 -15.427049 -0.004822
C 20.991002 -16.554994 0.021017
H 21.581642 -16.562843 0.938469
H 21.674783 -16.450802 -0.832971
O 20.125525 -17.705665 -0.018440
C 20.905972 -18.951001 0.019984
H 21.542173 -19.047531 0.900214
H 21.428997 -18.959382 -0.938460
O 19.858888 -20.030972 -0.007751
C 20.521985 -21.317010 0.021006
H 20.965881 -21.415562 1.011606
H 21.226241 -21.452694 -0.799888
O 19.405351 -22.254553 0.021273
C 19.843985 -23.616005 0.022011
H 20.354118 -23.807652 0.968482
H 20.444547 -23.759746 -0.876317
O 18.580326 -24.364458 -0.029824
C 18.883987 -25.812982 0.020004
H 19.340131 -25.982098 0.995492
H 19.509087 -26.066351 -0.836336
O 17.530982 -26.425132 -0.010353
C 17.657001 -27.870998 0.020013
H 18.058341 -28.139886 1.003610
H 18.232104 -28.265479 -0.820977
O 16.290750 -28.265761 -0.035645
C 16.180988 -29.759974 0.022008
H 16.630477 -30.058906 0.970518
H 16.669719 -30.080314 -0.898462
O 14.758320 -30.068137 -0.043382
C 14.479988 -31.449020 0.021006
H 14.837424 -31.900315 0.961445
H 14.897010 -31.939324 -0.858906
O 12.998308 -31.541434 0.033566
C 12.580003 -32.911009 0.020004
H 12.911113 -33.430855 0.920768
H 12.925327 -33.455641 -0.858863
O 11.137993 -32.817808 0.019077
C 10.512993 -34.124004 0.020998
H 10.776747 -34.645555 0.941107
H 10.783413 -34.756040 -0.835118
O 9.078507 -33.837065 -0.020011
C 8.310010 -35.067990 0.020990
H 8.570603 -35.559482 0.958545
H 8.556655 -35.609112 -0.893371
O 6.946948 -34.600498 -0.007118
C 6.006005 -35.728987 0.020009
H 6.130856 -36.102273 1.037130
H 6.190824 -36.429802 -0.796129
O 4.703572 -35.137916 -0.035567
C 3.636990 -36.094995 0.021003
H 3.647551 -36.689723 0.940202
H 3.608440 -36.675402 -0.903191
O 2.393641 -35.287570 -0.000342
C 1.240988 -36.161986 0.021985
H 1.291390 -36.790007 0.913004
H 1.205003 -36.691646 -0.930755
O 0.117603 -35.218412 0.005265
C -1.144003 -35.926996 0.020999
H -1.223254 -36.598355 0.876253
H -1.182493 -36.464112 -0.927432
O -2.157082 -34.855879 0.046886
C -3.481020 -35.394983 0.019992
H -3.690025 -36.010296 0.897441
H -3.698956 -35.909468 -0.915880
O -4.369094 -34.193097 0.018123
C -5.732989 -34.574991 0.020999
H -5.893549 -35.096250 0.964969
H -5.907746 -35.130697 -0.900368
O -6.400817 -33.315676 0.013459
C -7.864005 -33.477992 0.021996
H -8.233835 -33.994640 0.909047
H -8.226084 -33.943370 -0.894707
O -8.362629 -32.112834 0.036917
C -9.840991 -32.121987 0.019988
H -10.271928 -32.573868 0.913193
H -10.177648 -32.530869 -0.934816
O -10.215590 -30.712324 0.011501
C -11.632998 -30.530006 0.019994
H -12.080117 -30.912529 0.949031
H -12.056452 -30.972119 -0.884281
O -11.788690 -29.076879 -0.006188
C -13.210975 -28.726012 0.021990
H -13.624077 -29.195273 0.915671
H -13.577780 -29.095203 -0.936163
O -13.170732 -27.299859 -0.034070
C -14.549988 -26.738011 0.019996
H -15.065546 -27.010075 0.944789
H -15.099796 -27.066246 -0.862415
O -14.379195 -25.333205 -0.077090
C -15.630000 -24.598007 0.020997
H -16.183097 -24.937771 0.902245
H -16.171076 -24.766254 -0.910601
O -15.272340 -23.192916 -0.023832
C -16.433993 -22.339988 0.021010
H -16.881414 -22.452429 1.013666
H -17.093355 -22.553783 -0.819846
O -15.918424 -20.986219 -0.042590
C -16.947997 -19.999013 0.019997
H -17.468235 -20.088074 0.984105
H -17.544811 -20.101447 -0.890967
O -16.233127 -18.763792 0.003141
C -17.164999 -17.611993 0.021000
H -17.771346 -17.545635 0.928771
H -17.794582 -17.602526 -0.876254
O -16.339844 -16.433520 0.034634
C -17.080991 -15.216013 0.020998
H -17.552185 -15.211743 1.004484
H -17.707499 -15.272554 -0.880363
O -16.064628 -14.158637 0.026095
C -16.697983 -12.849987 0.022005
H -17.256623 -12.696728 0.945298
H -17.237681 -12.678069 -0.910031
O -15.564334 -11.901005 0.001619
C -16.020993 -10.549994 0.020004
H -16.653258 -10.303933 0.873482
H -16.586530 -10.421946 -0.904845
O -14.788980 -9.729669 0.031000
C -15.061001 -8.354002 0.021002
H -15.538688 -8.139050 0.976840
H -15.689335 -8.119547 -0.839386
O -13.703187 -7.725534 0.024124
C -13.833983 -6.295006 0.022007
H -14.317290 -6.097340 0.979375
H -14.364069 -6.002304 -0.885628
O -12.411408 -5.895998 0.027357
C -12.357998 -4.405998 0.020991
H -12.750126 -3.982929 0.946121
H -12.842806 -3.951453 -0.844411
O -10.991210 -4.119450 0.009576
C -10.655997 -2.717999 0.020991
H -11.008370 -2.248088 0.949204
H -10.995261 -2.307444 -0.934702
O -9.221844 -2.632893 0.007326
C -8.756005 -1.255998 0.021992
H -9.040861 -0.862793 1.002324
H -9.131453 -0.660767 -0.815570
O -7.359932 -1.362249 -0.002542
C -6.687987 -0.043987 0.020004
H -6.954168 0.436567 0.964668
H -6.947551 0.648310 -0.797455
O -5.251227 -0.297161 -0.019007
C -4.484991 0.897985 0.020999
H -4.741281 1.368972 0.979014
H -4.658173 1.521363 -0.856474
O -3.116981 0.422273 0.023724
C -2.180998 1.556995 0.021994
H -2.335479 2.151179 0.926142
H -2.315913 2.149717 -0.892466
O -0.840338 0.934096 0.006854
