350
Frame 0, Iteration: 100
C 0.246006 2.418002 0.237983
O 0.125704 3.187695 -1.051931
O 1.512575 1.638162 0.245567
C 2.706992 2.484993 0.239999
O 2.785944 3.271050 -1.013780
O 3.852726 1.573154 0.227014
C 5.155998 2.243981 0.242003
O 5.278720 2.982989 -1.009224
O 6.178738 1.201130 0.256425
C 7.556998 1.696978 0.244016
O 7.789013 2.454873 -0.972822
O 8.430439 0.508900 0.275345
C 9.869000 0.854995 0.246002
O 10.187656 1.577413 -0.951385
O 10.615878 -0.384866 0.257142
C 12.058008 -0.269995 0.247991
O 12.495386 0.440213 -1.004222
O 12.630211 -1.633432 0.251066
C 14.088993 -1.661006 0.249994
O 14.595604 -1.033379 -0.974278
O 14.480387 -3.071275 0.277788
C 15.928004 -3.295998 0.251984
O 16.540164 -2.732520 -0.978614
O 16.143684 -4.712098 0.269237
C 17.548004 -5.148009 0.254003
O 18.188033 -4.634401 -0.994838
O 17.557265 -6.638436 0.262037
C 18.922979 -7.188984 0.255989
O 19.623919 -6.794672 -1.015839
O 18.781872 -8.599155 0.265934
C 20.031008 -9.386983 0.257992
O 20.791519 -9.090855 -0.948784
O 19.720978 -10.795391 0.288208
C 20.854009 -11.705997 0.259000
O 21.621998 -11.507605 -0.943392
O 20.361306 -13.054744 0.259731
C 21.380004 -14.109015 0.260004
O 22.148834 -14.001634 -0.965960
O 20.725568 -15.410889 0.264296
C 21.600004 -16.559981 0.260998
O 22.393726 -16.562451 -0.962605
O 20.818726 -17.744614 0.259062
C 21.512008 -19.018997 0.260986
O 22.315612 -19.087311 -0.973595
O 20.504034 -20.092610 0.254968
C 21.116985 -21.447993 0.262001
O 21.903026 -21.605528 -0.970002
O 20.026062 -22.402553 0.312130
C 20.421998 -23.808011 0.261009
O 21.184141 -24.088808 -0.956992
O 19.182333 -24.649201 0.245117
C 19.435996 -26.061992 0.261005
O 20.188331 -26.448445 -0.917042
O 18.149979 -26.723317 0.272493
C 18.177001 -28.175987 0.259998
O 18.829271 -28.608379 -0.978223
O 16.778069 -28.653785 0.250985
C 16.661982 -30.115005 0.258984
O 17.239620 -30.622152 -1.002756
O 15.186622 -30.448911 0.271187
C 14.916991 -31.850009 0.258001
O 15.405977 -32.449670 -0.963332
O 13.480657 -31.973411 0.301700
C 12.968993 -33.352999 0.256011
O 13.400239 -34.042073 -0.941442
O 11.483607 -33.284274 0.242883
C 10.847000 -34.599991 0.254991
O 11.170953 -35.291000 -1.001417
O 9.422599 -34.356834 0.272355
C 8.585992 -35.570985 0.253001
O 8.873468 -36.300603 -0.971023
O 7.147071 -35.151996 0.274088
C 6.220999 -36.250004 0.251020
O 6.390206 -37.024210 -0.942037
O 4.907363 -35.682120 0.263815
C 3.788995 -36.627973 0.248999
O 3.816933 -37.410218 -0.942127
O 2.532353 -35.831194 0.244944
C 1.328008 -36.698001 0.246981
O 1.305916 -37.534500 -1.027932
O 0.186733 -35.821373 0.281504
C -1.120996 -36.458013 0.244014
O -1.241806 -37.246013 -0.990360
O -2.179159 -35.424991 0.306589
C -3.520994 -35.912010 0.242005
O -3.733096 -36.700590 -0.999297
O -4.410597 -34.765725 0.281587
C -5.833998 -35.069002 0.240004
O -6.149063 -35.813690 -1.010780
O -6.561403 -33.811419 0.240585
C -8.022992 -33.943015 0.237992
O -8.436774 -34.612089 -1.012545
O -8.580042 -32.606057 0.227603
C -10.053981 -32.550981 0.236003
O -10.529866 -33.140398 -0.989846
O -10.429497 -31.130967 0.259364
C -11.893998 -30.914993 0.234000
O -12.449842 -31.403545 -0.991400
O -12.097341 -29.495357 0.254228
C -13.514986 -29.062021 0.232000
O -14.107967 -29.551658 -0.985361
O -13.571234 -27.624188 0.283359
C -14.891023 -27.020005 0.230985
O -15.588362 -27.391440 -1.012735
O -14.776546 -25.568850 0.227527
C -15.999998 -24.821994 0.228988
O -16.734476 -25.090163 -1.012380
O -15.676163 -23.384482 0.256855
C -16.825992 -22.501998 0.228003
O -17.577685 -22.745466 -1.045324
O -16.295463 -21.123327 0.230569
C -17.355002 -20.096994 0.228005
O -18.137110 -20.209715 -1.028537
O -16.695573 -18.802971 0.200808
C -17.579008 -17.644988 0.226994
O -18.406026 -17.640034 -0.998392
O -16.722032 -16.413084 0.241831
C -17.493972 -15.184003 0.227009
O -18.247426 -15.098708 -1.015786
O -16.489791 -14.107697 0.271556
C -17.101009 -12.753000 0.226990
O -17.886529 -12.577599 -1.050825
O -16.017625 -11.775136 0.263475
C -16.405996 -10.389991 0.227004
O -17.128727 -10.128162 -1.040221
O -15.217671 -9.572027 0.241059
C -15.420999 -8.133998 0.226991
O -16.134026 -7.772271 -0.996605
O -14.097316 -7.535938 0.231065
C -14.160001 -6.018016 0.228003
O -14.813422 -5.589940 -1.030777
O -12.759992 -5.524823 0.249097
C -12.642982 -4.078007 0.228997
O -13.207543 -3.608447 -1.030206
O -11.179916 -3.771316 0.239716
C -10.894989 -2.344002 0.229986
O -11.402091 -1.757251 -1.012994
O -9.465824 -2.222328 0.271063
C -8.943009 -0.843010 0.230995
O -9.398394 -0.229971 -1.063406
O -7.496145 -0.918029 0.284133
C -6.818017 0.399980 0.232996
O -7.166692 1.122592 -1.019836
O -5.384452 0.159055 0.233734
C -4.554000 1.368001 0.234012
O -4.804892 2.117039 -0.964227
O -3.163313 0.937693 0.283457
C -2.186007 2.043995 0.235994
O -2.349008 2.769146 -1.013401
O -0.860831 1.448151 0.318023
H 11.154418 -35.233113 1.086731
H 8.827560 -36.235495 1.086896
H 14.475640 -1.109449 1.106961
H 6.297979 -36.805289 1.185523
H 3.767730 -37.285934 1.118254
H 2.661450 3.108412 1.139010
H 1.323653 -37.441306 1.044046
H -1.131815 -37.126200 1.108359
H 22.040587 -14.117464 1.132588
H -3.647235 -36.510330 1.145794
H -6.091432 -35.611607 1.149826
H 16.388541 -2.828640 1.121618
H -8.292643 -34.473686 1.150299
H -10.435194 -33.015931 1.144564
H 5.273558 2.838650 1.149798
H -12.448080 -31.355395 1.063002
H -13.993328 -29.525193 1.099209
H 22.222623 -16.436099 1.154969
H -15.542010 -27.431315 1.006033
H -16.586969 -25.117537 1.097485
H 18.011070 -4.820797 1.185175
H -17.353406 -22.642917 1.171658
H -17.974701 -20.129786 1.123293
H 7.740030 2.236289 1.173816
H -18.260406 -17.706677 1.074642
H -18.047986 -15.240466 1.164993
H 22.271787 -19.012635 1.043662
H -17.742565 -12.557032 1.085481
H -16.986473 -10.138927 1.118722
H 19.351488 -6.807243 1.182841
H -15.982154 -7.801455 1.098888
H -14.700460 -5.636947 1.104704
H 10.184642 1.474945 1.087757
H -13.146913 -3.640820 1.091418
H -11.307542 -1.737485 1.044332
H 21.706794 -21.593008 1.171254
H -9.275384 -0.319400 1.135410
H -7.205421 0.951101 1.091626
H 20.692640 -9.035743 1.060088
H -4.808525 1.976551 1.103926
H 20.032129 -26.164038 1.169026
H -2.284613 2.746699 1.063863
H 12.475117 0.200045 1.140448
H 18.607996 -28.538490 1.195820
H 21.032652 -24.020206 1.140799
H 17.126541 -30.576061 1.132567
H 0.200780 3.138695 1.053525
H 15.324801 -32.284145 1.169884
H 13.340727 -33.886536 1.134576
H 21.526126 -11.545395 1.107589
C 10.855973 -34.611970 -2.228016
O 9.386299 -34.352946 -2.234844
C 8.592986 -35.582980 -2.229993
O 7.173934 -35.150755 -2.248340
C 6.225012 -36.261006 -2.231987
O 4.891704 -35.692325 -2.283264
C 3.791993 -36.636996 -2.234004
O 2.533358 -35.876187 -2.281589
C 1.331010 -36.704991 -2.236008
O 0.194224 -35.801387 -2.219388
C -1.118999 -36.462996 -2.237995
O -2.151598 -35.425641 -2.293906
C -3.518994 -35.914987 -2.241000
O -4.398471 -34.759696 -2.264663
C -5.830992 -35.070002 -2.243001
O -6.559530 -33.809599 -2.245470
C -8.019004 -33.941996 -2.244999
O -8.583467 -32.582733 -2.269258
C -10.048994 -32.547989 -2.246997
O -10.453175 -31.152072 -2.296580
C -11.887010 -30.912012 -2.248994
O -12.066379 -29.494340 -2.267896
C -13.505988 -29.058009 -2.250994
O -13.561711 -27.602925 -2.236501
C -14.880009 -27.015993 -2.251993
O -14.725808 -25.547762 -2.240506
C -15.987988 -24.817987 -2.252998
O -15.675616 -23.389072 -2.302160
C -16.813007 -22.500007 -2.254005
O -16.307860 -21.146311 -2.291280
C -17.341002 -20.096001 -2.255001
O -16.685266 -18.814676 -2.251374
C -17.563996 -17.645003 -2.256011
O -16.677465 -16.438065 -2.260262
C -17.477970 -15.185996 -2.256008
O -16.512418 -14.094163 -2.286062
C -17.086015 -12.756014 -2.256014
O -15.998344 -11.806502 -2.268883
C -16.391994 -10.395026 -2.256008
O -15.169722 -9.603094 -2.227672
C -15.407010 -8.140000 -2.254984
O -14.117313 -7.479919 -2.269650
C -14.146986 -6.026001 -2.255008
O -12.763685 -5.523865 -2.256372
C -12.631988 -4.086004 -2.254008
O -11.216952 -3.773596 -2.267747
C -10.886004 -2.352005 -2.253001
O -9.429872 -2.217390 -2.232509
C -8.934980 -0.851006 -2.252016
O -7.444335 -0.908416 -2.244828
C -6.812002 0.393004 -2.249988
O -5.368897 0.187587 -2.294040
C -4.549004 1.362021 -2.247984
O -3.153329 0.959121 -2.271324
C -2.183010 2.039001 -2.246995
O -0.884070 1.454113 -2.259501
C 0.247975 2.415990 -2.245002
O 1.495695 1.661484 -2.275697
C 2.709005 2.484012 -2.243004
O 3.848174 1.587191 -2.249684
C 5.159004 2.245005 -2.240995
O 6.185523 1.210591 -2.269207
C 7.560012 1.699994 -2.237987
O 8.451839 0.522181 -2.221995
C 9.873988 0.859009 -2.236002
O 10.596789 -0.401588 -2.291436
C 12.065004 -0.264001 -2.233988
O 12.622332 -1.616140 -2.229671
C 14.096999 -1.654017 -2.232001
O 14.471276 -3.079882 -2.249287
C 15.939000 -3.287997 -2.230001
O 16.154430 -4.715158 -2.263651
C 17.561017 -5.141003 -2.227996
O 17.637484 -6.619629 -2.241034
C 18.937993 -7.183003 -2.227001
O 18.774404 -8.615862 -2.202404
C 20.048003 -9.381010 -2.224986
O 19.715939 -10.790829 -2.254165
C 20.873010 -11.702021 -2.223994
O 20.370582 -13.085196 -2.234466
C 21.400998 -14.107007 -2.223003
O 20.734663 -15.437610 -2.247375
C 21.621999 -16.560007 -2.221995
O 20.783933 -17.776044 -2.271705
C 21.535002 -19.022000 -2.220992
O 20.547213 -20.092006 -2.264236
C 21.140007 -21.452989 -2.221001
O 20.032697 -22.414110 -2.227968
C 20.443006 -23.814992 -2.220994
O 19.232405 -24.593884 -2.264846
C 19.455996 -26.071993 -2.221991
O 18.108308 -26.740160 -2.194083
C 18.195002 -28.186979 -2.221995
O 16.810121 -28.611515 -2.291075
C 16.677977 -30.127977 -2.223008
O 15.227494 -30.420868 -2.211439
C 14.930993 -31.862994 -2.224987
O 13.462254 -31.977622 -2.240089
C 12.980004 -33.366002 -2.225996
O 11.554233 -33.308200 -2.216748
H -8.355292 -34.513396 -3.110546
H -10.442173 -33.166483 -3.058904
H -12.358496 -31.378354 -3.112582
H -13.990414 -29.474114 -3.133224
H -15.413354 -27.380297 -3.130037
H 14.427820 -1.236814 -3.184503
H -16.515654 -25.061416 -3.177858
H -17.478798 -22.683965 -3.096345
H -17.978370 -20.194685 -3.132297
H 0.126144 3.152939 -3.039171
H -18.088483 -17.753118 -3.206175
H 2.769737 3.226224 -3.038468
H -18.043297 -15.131210 -3.189955
H -17.754599 -12.592723 -3.102292
H 7.766675 2.280803 -3.135651
H -17.061228 -10.231182 -3.106563
H 10.051808 1.470380 -3.120091
H -16.050725 -7.784112 -3.064137
H 12.450107 0.339192 -3.059066
H 22.225396 -19.032913 -3.063524
H -14.644385 -5.729203 -3.178564
H 16.447038 -2.812303 -3.070253
H -13.118921 -3.720763 -3.158858
H 18.106570 -4.681132 -3.051768
H -11.223440 -1.882602 -3.176852
H 19.487365 -6.894470 -3.133199
H -9.312211 -0.325221 -3.127692
H 20.686965 -9.253876 -3.099489
H -7.178205 1.008300 -3.071338
H 21.518497 -11.571778 -3.096333
H -4.777646 2.040280 -3.073911
H 21.984370 -13.921079 -3.128233
H -2.395514 2.689660 -3.099218
H 22.273811 -16.567934 -3.096497
H 5.278176 2.953662 -3.059344
H 21.872680 -21.606984 -3.013232
H 21.061088 -23.989431 -3.101712
H 20.032411 -26.313564 -3.114989
H 18.789215 -28.490077 -3.087966
H 17.142535 -30.529324 -3.124588
H 15.304017 -32.408189 -3.092716
H 13.363044 -33.819818 -3.139706
H 11.072436 -35.093458 -3.183540
H 8.789612 -36.185407 -3.119538
H 6.379385 -36.947017 -3.067900
H 3.903632 -37.286990 -3.100648
H 1.315173 -37.282913 -3.159073
H -1.230409 -37.067995 -3.138194
H -3.620457 -36.499963 -3.155907
H -6.089198 -35.625982 -3.150402
