65
Frame 0, Iteration: 100
C 0.187000 1.541000 1.421000
C -1.165248 2.325107 1.613151
H -0.895248 3.317564 1.956510
C 0.201000 1.073000 -0.053000
C -1.889175 2.357236 0.298339
H -2.069704 3.358960 -0.093475
C -1.112904 1.542721 -0.716668
H -0.909156 2.091851 -1.632670
C -2.005605 -0.953307 2.707551
H -2.187075 -1.595983 3.576336
C 0.157000 0.283000 2.322000
C 0.153000 -0.962000 1.403000
C -1.166138 0.292239 3.136983
H -0.995237 0.275351 4.220930
C -1.170973 -1.690500 1.623806
H -1.046455 -2.716431 1.969720
C -1.934555 -1.676062 0.280552
H -2.132815 -2.695221 -0.057496
C -1.953564 0.319706 -1.159859
H -2.099850 0.348637 -2.247334
C -3.274598 0.335873 -0.358740
H -4.064924 0.283629 -1.113947
C -1.092317 -0.913502 -0.750739
H -0.897136 -1.488899 -1.654717
C -3.240860 -0.915499 0.559884
H -4.120123 -1.486337 0.269014
C -3.335837 -0.475282 2.029015
H -4.282054 -0.809317 2.469782
C -3.249515 1.604388 0.520988
H -4.036298 2.337469 0.330048
C -3.268598 1.104090 2.024383
H -4.073856 1.485204 2.653966
C -1.943199 1.577754 2.723542
H -2.113076 2.226808 3.589162
C 0.181000 -0.473000 -0.064000
C 1.510533 -0.945924 -0.730882
H 1.383881 -1.664792 -1.540012
C 1.439118 -1.773221 1.675430
H 1.322773 -2.815987 1.985785
C 2.264496 -1.729391 0.352382
H 2.461799 -2.764713 0.056142
C 1.520004 0.274886 3.145918
H 1.287691 0.194700 4.205461
C 2.271080 -0.993260 2.740431
H 2.400577 -1.629361 3.618187
C 1.491874 2.311664 1.704567
H 1.348461 3.343500 2.020901
C 2.321867 1.518978 2.820534
H 2.580338 2.043470 3.745147
C 1.535965 1.542881 -0.687244
H 1.323084 2.085886 -1.603584
C 2.305164 0.290233 -1.096350
H 2.669177 0.236261 -2.127186
C 2.377361 2.313293 0.385584
H 2.707695 3.314888 0.065686
C 3.598881 -0.980265 0.611716
H 4.437609 -1.633468 0.370500
C 3.639776 0.254780 -0.306927
H 4.473690 0.314212 -1.017720
C 3.558464 -0.568949 2.105349
H 4.412398 -1.051999 2.579493
C 3.593868 1.011295 2.152074
H 4.471901 1.349011 2.716403
C 3.648118 1.476705 0.683498
H 4.560755 2.070707 0.594822
