54
Frame 0, Iteration: 100
C -2.127097 1.076416 -0.102331
C -2.183797 -1.267187 -0.100733
C -0.129961 2.219580 -0.125181
C 1.843317 1.103362 -0.107240
C 1.942319 -1.226355 -0.104658
C -0.114502 -2.407459 -0.091654
C -1.441441 -0.881282 -1.347149
C -1.440910 0.612029 -1.387234
C -0.158564 1.397556 -1.399466
C 1.136832 0.645117 -1.358378
C 1.163867 -0.836938 -1.351645
C -0.137912 -1.605864 -1.340289
O -3.048662 -0.093973 -0.548414
O -1.603811 2.435908 -0.520163
O 1.317750 2.474781 -0.595581
O 2.750304 -0.023221 -0.582256
O 1.366946 -2.561629 -0.567810
O -1.574699 -2.630926 -0.534058
C -2.153162 1.093050 2.462618
C -0.103761 2.272841 2.466730
C -2.122644 -1.232604 2.508547
C -0.093087 -2.410300 2.450736
C 1.961213 -1.202597 2.465472
C 1.905013 1.155825 2.444094
C -0.063253 1.453506 3.766135
C -1.384299 0.719615 3.745126
C -1.420353 -0.813869 3.771605
C -0.132844 -1.530520 3.738619
C 1.215940 -0.785808 3.728279
C 1.218135 0.753005 3.731618
O -1.567310 2.469463 2.905445
O -2.987969 -0.076345 2.998218
O -1.523274 -2.559883 2.984666
O 1.378678 -2.554420 2.938973
O 2.805982 -0.042445 2.952086
O 1.352939 2.514425 2.884807
C -0.105998 -1.567009 1.203996
C -1.411016 -0.824005 1.207997
C -1.419993 0.677995 1.192997
C -0.123004 1.436002 1.174005
C 1.181988 0.691996 1.171011
C 1.190024 -0.808994 1.185996
H -1.996089 -1.247236 -2.220599
H -1.997325 0.957676 -2.269989
H -0.214181 2.066979 -2.276478
H 1.651809 0.967133 -2.273988
H 1.739130 -1.119073 -2.247090
H -0.091957 -2.305175 -2.190858
H -0.020170 2.037780 4.695167
H -1.908846 1.024549 4.661671
H -2.019537 -1.207385 4.614451
H -0.162286 -2.165785 4.636985
H 1.791577 -1.119147 4.632040
H 1.842010 1.057706 4.587200
