65
Frame 0, Iteration: 100
C 0.188849 1.540976 1.421026
C -1.163472 2.324678 1.613677
H -0.895876 3.317835 1.956831
C 0.169829 1.073406 -0.053437
C -1.889435 2.357401 0.298377
H -2.069818 3.359118 -0.093344
C -1.118846 1.543894 -0.718036
H -0.906694 2.091840 -1.632562
C -2.005649 -0.953314 2.707551
H -2.187090 -1.595941 3.576374
C 0.172086 0.282804 2.322211
C 0.142857 -0.961868 1.402858
C -1.164533 0.292550 3.136601
H -0.996122 0.275478 4.220977
C -1.173102 -1.690938 1.624092
H -1.045642 -2.716496 1.969801
C -1.934704 -1.676157 0.280552
H -2.132912 -2.695282 -0.057496
C -1.953964 0.319738 -1.160036
H -2.100022 0.348604 -2.247452
C -3.274631 0.335846 -0.358753
H -4.064959 0.283621 -1.113938
C -1.092091 -0.914028 -0.750871
H -0.897039 -1.489171 -1.654932
C -3.240871 -0.915498 0.559870
H -4.120135 -1.486331 0.269016
C -3.335842 -0.475271 2.029024
H -4.282058 -0.809312 2.469783
C -3.249536 1.604409 0.521023
H -4.036319 2.337468 0.330061
C -3.268579 1.104092 2.024374
H -4.073835 1.485209 2.653969
C -1.942987 1.577715 2.723484
H -2.113004 2.226761 3.589122
C 0.183560 -0.473033 -0.063964
C 1.511367 -0.944987 -0.730616
H 1.384453 -1.663952 -1.539965
C 1.437968 -1.772675 1.674793
H 1.323832 -2.815660 1.986019
C 2.265507 -1.730880 0.354746
H 2.456097 -2.766415 0.056000
C 1.522096 0.274188 3.146034
H 1.287304 0.194404 4.205195
C 2.280929 -0.988608 2.738473
H 2.400380 -1.627440 3.616801
C 1.494404 2.311723 1.704257
H 1.348123 3.343131 2.021161
C 2.328450 1.516641 2.817609
H 2.580877 2.042296 3.743893
C 1.530109 1.541899 -0.686540
H 1.325584 2.085398 -1.604516
C 2.307792 0.290268 -1.091622
H 2.675487 0.235966 -2.122449
C 2.375640 2.315468 0.383798
H 2.701615 3.318035 0.064488
C 3.622000 -1.007000 0.637000
H 4.458184 -1.656554 0.372124
C 3.652000 0.255000 -0.265000
H 4.467289 0.315124 -0.992113
C 3.607000 -0.538000 2.118000
H 4.453105 -1.037298 2.594416
C 3.628000 1.015000 2.129000
H 4.495456 1.358666 2.707547
C 3.655000 1.505000 0.656000
H 4.573737 2.093234 0.574125
