54
Frame 0, Iteration: 100
C -2.133853 1.080384 -0.110202
C -2.195093 -1.273649 -0.111575
C -0.131190 2.233488 -0.134332
C 1.849204 1.106602 -0.111050
C 1.955808 -1.229832 -0.117832
C -0.113367 -2.419201 -0.099441
C -1.442176 -0.881768 -1.347938
C -1.440415 0.613038 -1.388162
C -0.144011 1.402989 -1.391003
C 1.140241 0.645118 -1.358984
C 1.164685 -0.837391 -1.352660
C -0.137850 -1.606718 -1.340809
O -3.043508 -0.093701 -0.539511
O -1.600904 2.431426 -0.512189
O 1.315294 2.469518 -0.586909
O 2.745914 -0.023183 -0.574848
O 1.364316 -2.557595 -0.558996
O -1.572186 -2.626488 -0.524973
C -2.158423 1.096633 2.469346
C -0.106043 2.286047 2.477118
C -2.134089 -1.238484 2.519750
C -0.091120 -2.422691 2.463153
C 1.974330 -1.205660 2.474539
C 1.911895 1.159238 2.452791
C -0.063228 1.454632 3.767104
C -1.385518 0.720394 3.746370
C -1.421255 -0.814386 3.772686
C -0.132969 -1.531762 3.739676
C 1.216765 -0.786126 3.729023
C 1.219468 0.753785 3.733035
O -1.565332 2.465087 2.897495
O -2.983426 -0.076239 2.990125
O -1.521032 -2.556076 2.976986
O 1.375960 -2.550848 2.930827
O 2.801511 -0.042328 2.944633
O 1.350470 2.509411 2.876031
C -0.093880 -1.590804 1.213351
C -1.436966 -0.840691 1.211057
C -1.409372 0.671906 1.190537
C -0.138358 1.455809 1.176999
C 1.167681 0.686398 1.184334
C 1.237637 -0.803975 1.177009
H -1.995062 -1.246769 -2.222326
H -1.995135 0.958572 -2.271796
H -0.207381 2.063415 -2.272461
H 1.651896 0.966953 -2.275815
H 1.737984 -1.118720 -2.248946
H -0.091934 -2.304301 -2.192305
H -0.020114 2.036664 4.696885
H -1.908711 1.024513 4.663270
H -2.018833 -1.207045 4.616302
H -0.162475 -2.164863 4.638851
H 1.790728 -1.118736 4.633594
H 1.842000 1.057549 4.589050
