54
Frame 0, Iteration: 100
C -2.135774 1.081207 -0.111015
C -2.192170 -1.272166 -0.110764
C -0.130161 2.230209 -0.133645
C 1.851345 1.108112 -0.114306
C 1.949900 -1.230615 -0.113955
C -0.114378 -2.416692 -0.100312
C -1.442385 -0.881979 -1.348405
C -1.442181 0.612464 -1.388354
C -0.158611 1.398881 -1.400612
C 1.138106 0.645688 -1.359484
C 1.164904 -0.837577 -1.352878
C -0.137890 -1.607096 -1.341521
O -3.043564 -0.093745 -0.539553
O -1.600883 2.431331 -0.511547
O 1.315252 2.469619 -0.587513
O 2.745606 -0.023181 -0.574153
O 1.364600 -2.557586 -0.559174
O -1.572189 -2.626596 -0.525117
C -2.160528 1.097348 2.470816
C -0.103881 2.282996 2.475633
C -2.130156 -1.237029 2.516997
C -0.092737 -2.418009 2.458304
C 1.968859 -1.206923 2.474036
C 1.913149 1.160422 2.452380
C -0.063143 1.454847 3.767263
C -1.385400 0.720323 3.746279
C -1.421429 -0.814537 3.772867
C -0.133051 -1.531846 3.739751
C 1.217043 -0.786450 3.729490
C 1.219277 0.753637 3.732791
O -1.565242 2.464867 2.897039
O -2.983387 -0.076340 2.990073
O -1.520916 -2.556041 2.976766
O 1.376145 -2.550769 2.930849
O 2.801122 -0.042310 2.943932
O 1.350451 2.509624 2.876382
C -0.105998 -1.567013 1.203996
C -1.411019 -0.824007 1.207997
C -1.419996 0.677997 1.192997
C -0.123004 1.436006 1.174004
C 1.181992 0.691998 1.171010
C 1.190027 -0.808997 1.185996
H -1.995509 -1.247087 -2.222407
H -1.996968 0.957257 -2.271748
H -0.214282 2.066461 -2.278312
H 1.651463 0.966797 -2.275656
H 1.738694 -1.118887 -2.248759
H -0.091897 -2.304787 -2.192594
H -0.020068 2.037087 4.696881
H -1.908421 1.024363 4.663296
H -2.019306 -1.207309 4.616114
H -0.162505 -2.165529 4.638522
H 1.791245 -1.118977 4.633713
H 1.841786 1.057425 4.588931
