65
Frame 0, Iteration: 100
C 0.186995 1.541000 1.421000
C -1.157867 2.332806 1.619618
X -0.974206 3.030687 1.879154
C 0.200993 1.073000 -0.053000
C -1.894595 2.360469 0.296529
X -2.047769 3.077269 0.052892
C -1.109493 1.550395 -0.728415
X -0.960723 1.973238 -1.357160
C -2.011464 -0.948281 2.706221
X -2.157416 -1.412235 3.333458
C 0.157010 0.283000 2.322000
C 0.152995 -0.962000 1.403000
C -1.173193 0.297464 3.137624
X -1.048176 0.288525 3.930030
C -1.179471 -1.692090 1.626329
X -1.085011 -2.409206 1.862411
C -1.945276 -1.684389 0.280892
X -2.113430 -2.424530 0.047944
C -1.943407 0.322294 -1.157503
X -2.054299 0.345410 -1.913541
C -3.270006 0.340833 -0.372253
X -3.862189 0.325977 -0.892357
C -1.102242 -0.914867 -0.751534
X -0.984082 -1.338627 -1.370461
C -3.256003 -0.910847 0.549344
X -3.884714 -1.315977 0.363476
C -3.332180 -0.462552 2.019523
X -3.990800 -0.705326 2.362150
C -3.249842 1.609147 0.519177
X -3.844807 2.109005 0.393371
C -3.270929 1.107624 2.020066
X -3.864242 1.379263 2.435710
C -1.949440 1.576103 2.712056
X -2.097448 2.022068 3.321245
C 0.181009 -0.473000 -0.064000
C 1.513917 -0.955218 -0.722037
X 1.392534 -1.439718 -1.308053
C 1.444479 -1.766054 1.677840
X 1.334629 -2.496774 1.898333
C 2.270105 -1.742424 0.360578
X 2.417225 -2.492383 0.136555
C 1.506456 0.273665 3.154709
X 1.318769 0.233815 3.907605
C 2.264886 -0.993025 2.745922
X 2.364664 -1.435018 3.352416
C 1.499254 2.312331 1.704056
X 1.382207 3.047182 1.933757
C 2.316614 1.514858 2.812334
X 2.474967 1.919564 3.444151
C 1.540260 1.539615 -0.692003
X 1.389112 1.954373 -1.327748
C 2.319280 0.281752 -1.085321
X 2.538017 0.260890 -1.802276
C 2.376420 2.312935 0.386456
X 2.570808 3.060314 0.151205
C 3.603441 -0.987342 0.622404
X 4.201604 -1.449498 0.475873
C 3.638922 0.252551 -0.290819
X 4.243365 0.277511 -0.771083
C 3.566950 -0.565770 2.114865
X 4.187799 -0.868994 2.474166
C 3.602277 1.015490 2.157046
X 4.246591 1.278168 2.551867
C 3.647366 1.478257 0.684285
X 4.263104 1.910186 0.580610
