65
Frame 0, Iteration: 100
C 0.189101 1.540973 1.421029
C -1.156051 2.332432 1.620014
X -0.974369 3.030753 1.879247
C 0.175511 1.073332 -0.053357
C -1.894794 2.360599 0.296526
X -2.047802 3.077301 0.052923
C -1.114797 1.551195 -0.729350
X -0.960174 1.973204 -1.357079
C -2.011527 -0.948306 2.706224
X -2.157425 -1.412227 3.333469
C 0.169822 0.282833 2.322180
C 0.142057 -0.961858 1.402847
C -1.171771 0.297747 3.137379
X -1.048357 0.288568 3.930052
C -1.181738 -1.692433 1.626505
X -1.084782 -2.409197 1.862420
C -1.945391 -1.684482 0.280888
X -2.113453 -2.424541 0.047941
C -1.943712 0.322329 -1.157667
X -2.054346 0.345397 -1.913577
C -3.270032 0.340806 -0.372272
X -3.862196 0.325975 -0.892354
C -1.101563 -0.915175 -0.751523
X -0.984109 -1.338706 -1.370527
C -3.256011 -0.910848 0.549326
X -3.884717 -1.315976 0.363476
C -3.332186 -0.462542 2.019533
X -3.990802 -0.705325 2.362150
C -3.249859 1.609170 0.519210
X -3.844811 2.109004 0.393375
C -3.270912 1.107624 2.020054
X -3.864237 1.379264 2.435711
C -1.949250 1.576067 2.711999
X -2.097423 2.022056 3.321232
C 0.186582 -0.473073 -0.063922
C 1.514938 -0.954744 -0.721712
X 1.392606 -1.439496 -1.308035
C 1.443027 -1.765519 1.677185
X 1.334954 -2.496738 1.898423
C 2.271846 -1.743972 0.361945
X 2.415815 -2.492976 0.136529
C 1.508203 0.273107 3.154526
X 1.318750 0.233698 3.907515
C 2.272908 -0.988532 2.743088
X 2.364857 -1.434368 3.351702
C 1.501707 2.312366 1.703713
X 1.382137 3.047051 1.933857
C 2.321952 1.512337 2.808935
X 2.475301 1.919066 3.443483
C 1.534875 1.539194 -0.691437
X 1.389634 1.954273 -1.328016
C 2.319825 0.281989 -1.081476
X 2.539365 0.260869 -1.800700
C 2.376162 2.315983 0.384524
X 2.569114 3.061194 0.150759
C 3.621987 -1.006988 0.636993
X 4.210245 -1.458705 0.475208
C 3.651989 0.255005 -0.265011
X 4.240426 0.279316 -0.762645
C 3.606988 -0.538018 2.117993
X 4.203381 -0.863723 2.477601
C 3.627999 1.015004 2.129019
X 4.256254 1.280680 2.547729
C 3.654993 1.504984 0.656020
X 4.269006 1.919671 0.571455
