2
Frame 0, Iteration: 100
H -0.182965 0.014006 0.000009
H 0.554515 -0.046329 -0.093335
