20
Frame 0, Iteration: 100
Si -0.045498 6.020346 -0.011565
H 0.735445 6.986097 0.767232
H -0.878694 6.804221 -0.941806
H -0.961231 5.213479 0.888210
H 0.939839 5.210138 -0.843324
Si -0.060823 -5.953734 -0.016440
H 0.782145 -5.165804 0.925041
H -0.943409 -5.219530 -0.951898
H -0.920439 -6.799368 0.850229
H 0.832584 -6.901096 -0.730712
C 5.997957 -0.005799 0.035674
H 6.619731 0.594529 0.694505
H 5.382469 0.620786 -0.606853
H 5.413685 -0.622962 0.720596
H 6.672348 -0.562097 -0.611060
H -5.424177 0.695035 0.644207
H -6.520445 0.685691 -0.651620
H -6.631537 -0.644692 0.605489
H -5.408389 -0.638864 -0.635912
C -5.991128 0.009425 0.015070
