7
Frame 0, Iteration: 100
Si 0.000000 0.000000 -0.009516
H 0.798793 0.976013 0.777509
H -0.836461 0.802977 -0.951900
H -0.921290 -0.816583 0.906182
H 1.004455 -0.815394 -0.850790
Ar 19.999999 0.000000 -0.000003
Ar -0.000001 19.999997 0.000005
