10
Frame 0, Iteration: 100
C -0.246632 -0.002954 -0.004834
H 0.308686 0.740884 0.578264
H -0.863595 0.556869 -0.702457
H -0.903214 -0.576645 0.654979
H 0.479052 -0.589608 -0.572437
C 8.811530 0.033982 -0.000926
H 9.407557 0.634181 0.684721
H 8.173357 0.575740 -0.702429
H 8.170053 -0.568624 0.633288
H 9.473412 -0.665045 -0.505362
